                         Program Version 5.0.4 -  RELEASE  -
|  1> ! B3LYP EPR-II AUTOAUX
|  2> %pal nprocs 16 end
|  3> *XYZFile 1 2 opt_EPRII.xyz
|  4> %EPRNMR
|  5>         GTENSOR   TRUE
|  6>         NUCLEI    = 1,5,11,12,13,14,21 {SHIFT, AISO, ADIP, AORB}
|  7>         ORI       GIAO
|  8> END
|  9>
| 10>                          ****END OF INPUT****

CARTESIAN COORDINATES (ANGSTROEM)
---------------------------------
  N     -1.673229    0.012208   -0.019092
  C     -3.159410   -0.049754   -0.040751
  C     -1.035013    1.184362   -0.006610
  C      0.414076    1.248375    0.011188
  O      0.966500    2.379181    0.022853
  C      1.160193   -0.008319    0.015054
  C      2.654456    0.033227    0.031854
  C      0.428378   -1.221335    0.001066
  C      1.116890   -2.567837    0.003912
  C     -0.967713   -1.168234   -0.015605
  H     -3.481645   -0.548050   -0.956984
  H     -3.505197   -0.606301    0.832137
  H     -3.558176    0.963021   -0.012274
  H     -1.614949    2.101084   -0.009670
  H      3.042374   -0.518165    0.897284
  H      3.057389   -0.464459   -0.859620
  H      3.016327    1.059961    0.063772
  H      1.743395   -2.678726    0.894708
  H      0.396507   -3.387896   -0.010634
  H      1.768823   -2.669535   -0.869516
  H     -1.573475   -2.067807   -0.026572

 Total Charge           Charge          ....    1
 Multiplicity           Mult            ....    2
 Number of Electrons    NEL             ....   73
 Basis Dimension        Dim             ....  247

ORBITAL ENERGIES
----------------
                 SPIN UP ORBITALS
  NO   OCC          E(Eh)            E(eV)
   0   1.0000     -19.322618      -525.7952
   1   1.0000     -14.627330      -398.0299
   2   1.0000     -10.451142      -284.3900
   3   1.0000     -10.449420      -284.3432
   4   1.0000     -10.445108      -284.2258
   5   1.0000     -10.418144      -283.4921
   6   1.0000     -10.408110      -283.2191
   7   1.0000     -10.407320      -283.1976
   8   1.0000     -10.343381      -281.4577
   9   1.0000     -10.335873      -281.2534
  10   1.0000      -1.218400       -33.1543
  11   1.0000      -1.199611       -32.6431
  12   1.0000      -1.022480       -27.8231
  13   1.0000      -0.967432       -26.3252
  14   1.0000      -0.930771       -25.3276
  15   1.0000      -0.894402       -24.3379
  16   1.0000      -0.855014       -23.2661
  17   1.0000      -0.795368       -21.6431
  18   1.0000      -0.788025       -21.4433
  19   1.0000      -0.715761       -19.4768
  20   1.0000      -0.710403       -19.3310
  21   1.0000      -0.668501       -18.1908
  22   1.0000      -0.648586       -17.6489
  23   1.0000      -0.626446       -17.0465
  24   1.0000      -0.611444       -16.6382
  25   1.0000      -0.610254       -16.6058
  26   1.0000      -0.597066       -16.2470
  27   1.0000      -0.578748       -15.7485
  28   1.0000      -0.572663       -15.5829
  29   1.0000      -0.561281       -15.2732
  30   1.0000      -0.559881       -15.2351
  31   1.0000      -0.545453       -14.8425
  32   1.0000      -0.536512       -14.5992
  33   1.0000      -0.528817       -14.3898
  34   1.0000      -0.462658       -12.5896
  35   1.0000      -0.444002       -12.0819
  36   1.0000      -0.417847       -11.3702
  37   0.0000      -0.252921        -6.8823
  38   0.0000      -0.194656        -5.2969
  39   0.0000      -0.136658        -3.7187
  40   0.0000      -0.110926        -3.0185
  41   0.0000      -0.096882        -2.6363

                 SPIN DOWN ORBITALS
  NO   OCC          E(Eh)            E(eV)
   0   1.0000     -19.309386      -525.4351
   1   1.0000     -14.629047      -398.0766
   2   1.0000     -10.451550      -284.4011
   3   1.0000     -10.446446      -284.2623
   4   1.0000     -10.441465      -284.1267
   5   1.0000     -10.414134      -283.3830
   6   1.0000     -10.409838      -283.2661
   7   1.0000     -10.407248      -283.1956
   8   1.0000     -10.343310      -281.4558
   9   1.0000     -10.336022      -281.2575
  10   1.0000      -1.208598       -32.8876
  11   1.0000      -1.183485       -32.2043
  12   1.0000      -1.018730       -27.7211
  13   1.0000      -0.957151       -26.0454
  14   1.0000      -0.927430       -25.2367
  15   1.0000      -0.892464       -24.2852
  16   1.0000      -0.853105       -23.2142
  17   1.0000      -0.790931       -21.5223
  18   1.0000      -0.785061       -21.3626
  19   1.0000      -0.713426       -19.4133
  20   1.0000      -0.708300       -19.2738
  21   1.0000      -0.664628       -18.0855
  22   1.0000      -0.645560       -17.5666
  23   1.0000      -0.624189       -16.9851
  24   1.0000      -0.601606       -16.3705
  25   1.0000      -0.600192       -16.3320
  26   1.0000      -0.596505       -16.2317
  27   1.0000      -0.570223       -15.5166
  28   1.0000      -0.565041       -15.3755
  29   1.0000      -0.558636       -15.2013
  30   1.0000      -0.556417       -15.1409
  31   1.0000      -0.535156       -14.5623
  32   1.0000      -0.527545       -14.3552
  33   1.0000      -0.517523       -14.0825
  34   1.0000      -0.451633       -12.2896
  35   1.0000      -0.430893       -11.7252
  36   0.0000      -0.320961        -8.7338
  37   0.0000      -0.229570        -6.2469
  38   0.0000      -0.176160        -4.7935
  39   0.0000      -0.136183        -3.7057
  40   0.0000      -0.110542        -3.0080

MULLIKEN ATOMIC CHARGES AND SPIN POPULATIONS
--------------------------------------------
   0 N :    0.338299   -0.075792
   1 C :   -0.413074    0.003704
   2 C :   -0.178825    0.312420
   3 C :    0.093710   -0.113636
   4 O :   -0.177228    0.497914
   5 C :    0.202562    0.280280
   6 C :   -0.537543   -0.010156
   7 C :    0.372455   -0.112069
   8 C :   -0.538422    0.006495
   9 C :   -0.273137    0.230813
  10 H :    0.212267   -0.002995
  11 H :    0.209743   -0.002904
  12 H :    0.182211   -0.000424
  13 H :    0.194720   -0.015074
  14 H :    0.189101    0.011563
  15 H :    0.191818    0.012308
  16 H :    0.205952   -0.000551
  17 H :    0.192291   -0.004349
  18 H :    0.163215   -0.000469
  19 H :    0.192043   -0.004309
  20 H :    0.177840   -0.012769
Sum of atomic charges         :    1.0000000

LOEWDIN ATOMIC CHARGES AND SPIN POPULATIONS
-------------------------------------------
   0 N :    0.145243   -0.049155
   1 C :    0.079132    0.001012
   2 C :    0.107948    0.253943
   3 C :   -0.088816   -0.042814
   4 O :   -0.017166    0.477842
   5 C :    0.037449    0.217866
   6 C :    0.002720    0.004249
   7 C :   -0.049569   -0.066008
   8 C :   -0.001957   -0.000259
   9 C :    0.062624    0.191630
  10 H :    0.060280   -0.002069
  11 H :    0.059882   -0.001990
  12 H :    0.056400   -0.000121
  13 H :    0.084396    0.000374
  14 H :    0.070177    0.010750
  15 H :    0.071758    0.011459
  16 H :    0.065371    0.000121
  17 H :    0.062548   -0.003639
  18 H :    0.051291   -0.000250
  19 H :    0.062601   -0.003610
  20 H :    0.077688    0.000669

  Mayer bond orders larger than 0.100000
B(  0-N ,  1-C ) :   0.9061 B(  0-N ,  2-C ) :   1.4418 B(  0-N ,  9-C ) :   1.2648
B(  1-C , 10-H ) :   0.9388 B(  1-C , 11-H ) :   0.9402 B(  1-C , 12-H ) :   0.9517
B(  2-C ,  3-C ) :   1.1742 B(  2-C ,  4-O ) :   0.1095 B(  2-C ,  9-C ) :   0.1113
B(  2-C , 13-H ) :   0.9288 B(  3-C ,  4-O ) :   1.6947 B(  3-C ,  5-C ) :   1.1463
B(  5-C ,  6-C ) :   0.9245 B(  5-C ,  7-C ) :   1.4541 B(  5-C ,  9-C ) :   0.1529
B(  6-C , 14-H ) :   0.9355 B(  6-C , 15-H ) :   0.9333 B(  6-C , 16-H ) :   0.9511
B(  7-C ,  8-C ) :   0.8952 B(  7-C ,  9-C ) :   1.4312 B(  8-C , 17-H ) :   0.9451
B(  8-C , 18-H ) :   0.9705 B(  8-C , 19-H ) :   0.9450 B(  9-C , 20-H ) :   0.9277

FINAL SINGLE POINT ENERGY      -440.986060743583

DIPOLE MOMENT
-------------
                                X             Y             Z
Electronic contribution:     -1.09688       6.71982       0.02555
Nuclear contribution   :     -0.55880      -8.14049      -0.05673
                        -----------------------------------------
Total Dipole Moment    :     -1.65567      -1.42067      -0.03118
                        -----------------------------------------
Magnitude (a.u.)       :      2.18186
Magnitude (Debye)      :      5.54585

Rotational constants in cm-1:     0.059772     0.042129     0.025060
Rotational constants in MHz :  1791.908875  1262.988532   751.274234

CHEMICAL SHIELDING SUMMARY (ppm)  --  Orbital contribution
----------------------------------------------------------

  Nucleus  Element    Isotropic     Anisotropy
  -------  -------  ------------   ------------
      0       N           41.925        246.299
      4       O         -891.031      -2506.711
     10       H           27.595          7.396
     11       H           27.621          7.332
     12       H           28.124          7.263
     13       H           24.810          8.776
     20       H           24.103          9.424

                             ****ORCA TERMINATED NORMALLY****
TOTAL RUN TIME: 0 days 0 hours 3 minutes 7 seconds 226 msec
