                         Program Version 5.0.4 -  RELEASE  -
|  1> ! M062X def2-TZVP OPT FREQ
|  2> %pal nprocs 16 end
|  3> *XYZFile 1 2 opt_EPRII.xyz
|  4>
|  5>                          ****END OF INPUT****
 Total Charge           Charge          ....    1
 Multiplicity           Mult            ....    2
 Number of Electrons    NEL             ....   73
FINAL SINGLE POINT ENERGY      -441.134585849414
FINAL SINGLE POINT ENERGY      -441.136663428625
FINAL SINGLE POINT ENERGY      -441.136708855619
FINAL SINGLE POINT ENERGY      -441.136715539783
FINAL SINGLE POINT ENERGY      -441.136718378666
                    ***********************HURRAY********************

CARTESIAN COORDINATES (ANGSTROEM)
---------------------------------
  N     -1.655422    0.014370   -0.020213
  C     -3.131357   -0.052804   -0.038081
  C     -1.027468    1.172644   -0.008688
  C      0.410043    1.236903    0.008820
  O      0.956546    2.352073    0.021106
  C      1.142573   -0.010787    0.013494
  C      2.622771    0.017615    0.033211
  C      0.419658   -1.211237   -0.001302
  C      1.115035   -2.539081    0.001831
  C     -0.958381   -1.158642   -0.017443
  H     -3.447594   -0.557471   -0.948191
  H     -3.465486   -0.606701    0.836177
  H     -3.529226    0.956223   -0.013465
  H     -1.607306    2.086035   -0.011213
  H      2.996121   -0.537249    0.898451
  H      3.016296   -0.490274   -0.852201
  H      2.994524    1.036956    0.063045
  H      1.736123   -2.640731    0.892973
  H      0.405255   -3.362739   -0.018690
  H      1.770632   -2.626892   -0.865736
  H     -1.566838   -2.053211   -0.027387

 Multiplicity           Mult            ....    2
 Number of Electrons    NEL             ....   73
 Basis Dimension        Dim             ....  376

ORBITAL ENERGIES
----------------
                 SPIN UP ORBITALS
  NO   OCC          E(Eh)            E(eV)
   0   1.0000     -19.802009      -538.8400
   1   1.0000     -15.045770      -409.4162
   2   1.0000     -10.802074      -293.9394
   3   1.0000     -10.794481      -293.7328
   4   1.0000     -10.793803      -293.7143
   5   1.0000     -10.763825      -292.8986
   6   1.0000     -10.762731      -292.8688
   7   1.0000     -10.749954      -292.5211
   8   1.0000     -10.694103      -291.0013
   9   1.0000     -10.686931      -290.8062
  10   1.0000      -1.349051       -36.7095
  11   1.0000      -1.323683       -36.0192
  12   1.0000      -1.133439       -30.8424
  13   1.0000      -1.070524       -29.1304
  14   1.0000      -1.032354       -28.0918
  15   1.0000      -0.992587       -27.0097
  16   1.0000      -0.950363       -25.8607
  17   1.0000      -0.883632       -24.0449
  18   1.0000      -0.875212       -23.8157
  19   1.0000      -0.800833       -21.7918
  20   1.0000      -0.790889       -21.5212
  21   1.0000      -0.754026       -20.5181
  22   1.0000      -0.723596       -19.6900
  23   1.0000      -0.699043       -19.0219
  24   1.0000      -0.692862       -18.8537
  25   1.0000      -0.690604       -18.7923
  26   1.0000      -0.667806       -18.1719
  27   1.0000      -0.655973       -17.8499
  28   1.0000      -0.642763       -17.4905
  29   1.0000      -0.630716       -17.1626
  30   1.0000      -0.630100       -17.1459
  31   1.0000      -0.615573       -16.7506
  32   1.0000      -0.601275       -16.3615
  33   1.0000      -0.595843       -16.2137
  34   1.0000      -0.523417       -14.2429
  35   1.0000      -0.520647       -14.1675
  36   1.0000      -0.467022       -12.7083
  37   0.0000      -0.216573        -5.8933
  38   0.0000      -0.158337        -4.3086
  39   0.0000      -0.088223        -2.4007
  40   0.0000      -0.069985        -1.9044
  41   0.0000      -0.053989        -1.4691

                 SPIN DOWN ORBITALS
  NO   OCC          E(Eh)            E(eV)
   0   1.0000     -19.793281      -538.6025
   1   1.0000     -15.046986      -409.4493
   2   1.0000     -10.800318      -293.8916
   3   1.0000     -10.795034      -293.7478
   4   1.0000     -10.792935      -293.6907
   5   1.0000     -10.762686      -292.8676
   6   1.0000     -10.762294      -292.8569
   7   1.0000     -10.750786      -292.5438
   8   1.0000     -10.694061      -291.0002
   9   1.0000     -10.687066      -290.8099
  10   1.0000      -1.334750       -36.3204
  11   1.0000      -1.312519       -35.7155
  12   1.0000      -1.129533       -30.7362
  13   1.0000      -1.061343       -28.8806
  14   1.0000      -1.029566       -28.0159
  15   1.0000      -0.990808       -26.9613
  16   1.0000      -0.947820       -25.7915
  17   1.0000      -0.878839       -23.9144
  18   1.0000      -0.872122       -23.7317
  19   1.0000      -0.797211       -21.6932
  20   1.0000      -0.787659       -21.4333
  21   1.0000      -0.748541       -20.3688
  22   1.0000      -0.718428       -19.5494
  23   1.0000      -0.695176       -18.9167
  24   1.0000      -0.680965       -18.5300
  25   1.0000      -0.675993       -18.3947
  26   1.0000      -0.667089       -18.1524
  27   1.0000      -0.640160       -17.4196
  28   1.0000      -0.636284       -17.3142
  29   1.0000      -0.628118       -17.0920
  30   1.0000      -0.624558       -16.9951
  31   1.0000      -0.599046       -16.3009
  32   1.0000      -0.594107       -16.1665
  33   1.0000      -0.582356       -15.8467
  34   1.0000      -0.508765       -13.8442
  35   1.0000      -0.506635       -13.7862
  36   0.0000      -0.291491        -7.9319
  37   0.0000      -0.191471        -5.2102
  38   0.0000      -0.132810        -3.6139
  39   0.0000      -0.090461        -2.4616
  40   0.0000      -0.070600        -1.9211

MULLIKEN ATOMIC CHARGES AND SPIN POPULATIONS
--------------------------------------------
   0 N :    0.004155   -0.056772
   1 C :   -0.326665    0.004785
   2 C :    0.012277    0.279752
   3 C :    0.169853   -0.108994
   4 O :   -0.246326    0.489634
   5 C :    0.067265    0.276717
   6 C :   -0.453244    0.001357
   7 C :    0.044391   -0.095175
   8 C :   -0.459281    0.002281
   9 C :    0.007722    0.210207
  10 H :    0.208477   -0.002828
  11 H :    0.206506   -0.002785
  12 H :    0.182288    0.000254
  13 H :    0.227616   -0.008896
  14 H :    0.193800    0.014664
  15 H :    0.197513    0.015354
  16 H :    0.200530   -0.001058
  17 H :    0.194403   -0.004419
  18 H :    0.160289   -0.000170
  19 H :    0.192430   -0.004332
  20 H :    0.216001   -0.009575
Sum of atomic charges         :    1.0000000

LOEWDIN ATOMIC CHARGES AND SPIN POPULATIONS
-------------------------------------------
   0 N :    0.278329   -0.018142
   1 C :   -0.196130   -0.001072
   2 C :   -0.013931    0.210203
   3 C :   -0.323418    0.024693
   4 O :    0.207931    0.432610
   5 C :   -0.023147    0.188504
   6 C :   -0.211987    0.017519
   7 C :   -0.132030   -0.022587
   8 C :   -0.219499   -0.005486
   9 C :   -0.051292    0.164495
  10 H :    0.143943   -0.001509
  11 H :    0.143743   -0.001468
  12 H :    0.140849   -0.000068
  13 H :    0.174827   -0.001038
  14 H :    0.157942    0.009530
  15 H :    0.159095    0.010049
  16 H :    0.152690   -0.000173
  17 H :    0.149752   -0.002763
  18 H :    0.141200   -0.000163
  19 H :    0.149708   -0.002708
  20 H :    0.171425   -0.000428

  Mayer bond orders larger than 0.100000
B(  0-N ,  1-C ) :   0.8712 B(  0-N ,  2-C ) :   1.4022 B(  0-N ,  9-C ) :   1.1845
B(  1-C , 10-H ) :   0.9444 B(  1-C , 11-H ) :   0.9447 B(  1-C , 12-H ) :   0.9516
B(  2-C ,  3-C ) :   1.2770 B(  2-C , 13-H ) :   0.8829 B(  3-C ,  4-O ) :   1.6931
B(  3-C ,  5-C ) :   1.1553 B(  5-C ,  6-C ) :   0.9938 B(  5-C ,  7-C ) :   1.2409
B(  6-C , 14-H ) :   0.9397 B(  6-C , 15-H ) :   0.9392 B(  6-C , 16-H ) :   0.9522
B(  7-C ,  8-C ) :   0.9279 B(  7-C ,  9-C ) :   1.5172 B(  8-C , 17-H ) :   0.9586
B(  8-C , 18-H ) :   0.9666 B(  8-C , 19-H ) :   0.9563 B(  9-C , 20-H ) :   0.8974

FINAL SINGLE POINT ENERGY      -441.136718621953

DIPOLE MOMENT
-------------
                                X             Y             Z
Electronic contribution:     -1.15560       6.69441       0.00835
Nuclear contribution   :     -0.53886      -8.09626      -0.03639
                        -----------------------------------------
Total Dipole Moment    :     -1.69446      -1.40185      -0.02804
                        -----------------------------------------
Magnitude (a.u.)       :      2.19935
Magnitude (Debye)      :      5.59031

VIBRATIONAL FREQUENCIES
-----------------------

Scaling factor for frequencies =  1.000000000  (already applied!)

   0:         0.00 cm**-1
   1:         0.00 cm**-1
   2:         0.00 cm**-1
   3:         0.00 cm**-1
   4:         0.00 cm**-1
   5:         0.00 cm**-1
   6:       -65.97 cm**-1 ***imaginary mode***
   7:        77.72 cm**-1
   8:       102.03 cm**-1
   9:       155.06 cm**-1
  10:       182.43 cm**-1
  11:       229.86 cm**-1
  12:       293.70 cm**-1
  13:       314.67 cm**-1
  14:       324.64 cm**-1
  15:       350.59 cm**-1
  16:       443.07 cm**-1
  17:       532.26 cm**-1
  18:       535.10 cm**-1
  19:       565.04 cm**-1
  20:       582.42 cm**-1
  21:       616.24 cm**-1
  22:       720.15 cm**-1
  23:       765.48 cm**-1
  24:       920.54 cm**-1
  25:       938.05 cm**-1
  26:       941.47 cm**-1
  27:      1015.40 cm**-1
  28:      1018.61 cm**-1
  29:      1033.03 cm**-1
  30:      1061.78 cm**-1
  31:      1113.67 cm**-1
  32:      1140.76 cm**-1
  33:      1160.73 cm**-1
  34:      1181.72 cm**-1
  35:      1234.21 cm**-1
  36:      1312.44 cm**-1
  37:      1323.44 cm**-1
  38:      1384.55 cm**-1
  39:      1415.01 cm**-1
  40:      1423.10 cm**-1
  41:      1433.18 cm**-1
  42:      1446.79 cm**-1
  43:      1464.19 cm**-1
  44:      1465.17 cm**-1
  45:      1481.88 cm**-1
  46:      1483.02 cm**-1
  47:      1487.37 cm**-1
  48:      1502.86 cm**-1
  49:      1509.54 cm**-1
  50:      1581.43 cm**-1
  51:      1663.24 cm**-1
  52:      3060.15 cm**-1
  53:      3080.18 cm**-1
  54:      3105.45 cm**-1
  55:      3117.58 cm**-1
  56:      3148.50 cm**-1
  57:      3181.85 cm**-1
  58:      3197.66 cm**-1
  59:      3205.12 cm**-1
  60:      3221.48 cm**-1
  61:      3241.16 cm**-1
  62:      3251.13 cm**-1

IR SPECTRUM
-----------

 Mode   freq       eps      Int      T**2         TX        TY        TZ
       cm**-1   L/(mol*cm) km/mol    a.u.
----------------------------------------------------------------------------
  7:     77.72   0.000009    0.04  0.000034  (-0.000142 -0.002424 -0.005345)
  8:    102.03   0.000871    4.40  0.002665  (-0.000439 -0.000840  0.051613)
  9:    155.06   0.000138    0.70  0.000277  ( 0.000676  0.000931 -0.016610)
 10:    182.43   0.000030    0.15  0.000052  (-0.000152 -0.000573  0.007196)
 11:    229.86   0.000584    2.95  0.000793  (-0.000470 -0.000074  0.028154)
 12:    293.70   0.000070    0.35  0.000074  ( 0.002096 -0.008352 -0.000035)
 13:    314.67   0.000283    1.43  0.000280  ( 0.002372  0.016575  0.000307)
 14:    324.64   0.000063    0.32  0.000061  ( 0.000424 -0.000159  0.007787)
 15:    350.59   0.001220    6.16  0.001085  ( 0.028923 -0.015776  0.000242)
 16:    443.07   0.001186    5.99  0.000835  (-0.025593  0.013419  0.000102)
 17:    532.26   0.000003    0.02  0.000002  (-0.000385 -0.000055 -0.001299)
 18:    535.10   0.000041    0.21  0.000024  ( 0.004104  0.002607  0.000173)
 19:    565.04   0.002546   12.87  0.001406  (-0.001617 -0.000703  0.037460)
 20:    582.42   0.001438    7.26  0.000770  ( 0.026585  0.007752  0.001838)
 21:    616.24   0.000365    1.84  0.000185  (-0.002287 -0.013396 -0.000197)
 22:    720.15   0.000457    2.31  0.000198  (-0.000347  0.000334 -0.014067)
 23:    765.48   0.000422    2.13  0.000172  ( 0.007073  0.011038  0.000607)
 24:    920.54   0.001632    8.25  0.000553  (-0.000251  0.000162 -0.023516)
 25:    938.05   0.002117   10.70  0.000704  (-0.026265  0.003650 -0.001065)
 26:    941.47   0.002286   11.55  0.000758  (-0.001069 -0.000067  0.027507)
 27:   1015.40   0.000567    2.86  0.000174  (-0.002808  0.000414  0.012888)
 28:   1018.61   0.002415   12.20  0.000740  ( 0.025536 -0.009334  0.000791)
 29:   1033.03   0.000124    0.63  0.000038  (-0.006097  0.000565 -0.000087)
 30:   1061.78   0.000227    1.15  0.000067  (-0.000198  0.000139 -0.008173)
 31:   1113.67   0.000030    0.15  0.000009  (-0.002691  0.001108 -0.000192)
 32:   1140.76   0.002942   14.87  0.000805  ( 0.026197 -0.010888  0.000254)
 33:   1160.73   0.000029    0.15  0.000008  ( 0.000766 -0.000312  0.002681)
 34:   1181.72   0.002449   12.37  0.000647  ( 0.021698  0.013259 -0.000025)
 35:   1234.21   0.006009   30.37  0.001519  (-0.038703  0.004623 -0.000390)
 36:   1312.44   0.001408    7.11  0.000335  ( 0.001703 -0.018215  0.000230)
 37:   1323.44   0.000024    0.12  0.000006  (-0.002348  0.000226  0.000058)
 38:   1384.55   0.000711    3.59  0.000160  ( 0.012320 -0.002890 -0.000151)
 39:   1415.01   0.003842   19.42  0.000847  (-0.028938  0.003130  0.000421)
 40:   1423.10   0.000850    4.30  0.000186  ( 0.007977 -0.011080  0.000209)
 41:   1433.18   0.003733   18.86  0.000813  (-0.024189  0.015087 -0.000178)
 42:   1446.79   0.004799   24.25  0.001035  (-0.024687  0.020593  0.001223)
 43:   1464.19   0.000206    1.04  0.000044  (-0.000204  0.001114 -0.006521)
 44:   1465.17   0.000669    3.38  0.000142  (-0.011228  0.003656  0.001730)
 45:   1481.88   0.005950   30.07  0.001253  ( 0.001254  0.000549 -0.035370)
 46:   1483.02   0.004112   20.78  0.000865  ( 0.027751  0.009726  0.000807)
 47:   1487.37   0.003347   16.92  0.000702  (-0.001842  0.002206 -0.026344)
 48:   1502.86   0.008137   41.12  0.001690  (-0.041064 -0.001777 -0.000455)
 49:   1509.54   0.007608   38.45  0.001573  (-0.002986 -0.039522 -0.001376)
 50:   1581.43   0.005018   25.36  0.000990  ( 0.030136  0.009042  0.000531)
 51:   1663.24   0.017498   88.43  0.003283  (-0.051178 -0.025756 -0.000658)
 52:   3060.15   0.002681   13.55  0.000273  (-0.016536 -0.000061  0.000049)
 53:   3080.18   0.000024    0.12  0.000002  (-0.001432  0.000637 -0.000005)
 54:   3105.45   0.000040    0.20  0.000004  (-0.000866 -0.001812 -0.000049)
 55:   3117.58   0.000154    0.78  0.000015  ( 0.000033  0.000090  0.003927)
 56:   3148.50   0.000000    0.00  0.000000  (-0.000063 -0.000179 -0.000009)
 57:   3181.85   0.000360    1.82  0.000035  (-0.000409 -0.005929 -0.000141)
 58:   3197.66   0.000253    1.28  0.000025  ( 0.000030 -0.000007  0.004972)
 59:   3205.12   0.001159    5.86  0.000113  (-0.006908  0.008068  0.000074)
 60:   3221.48   0.000102    0.52  0.000010  (-0.002315 -0.002128 -0.000059)
 61:   3241.16   0.002037   10.30  0.000196  (-0.004175 -0.013369 -0.000058)
 62:   3251.13   0.003965   20.04  0.000381  ( 0.012276 -0.015163  0.000066)

--------------------------
THERMOCHEMISTRY AT 298.15K
--------------------------

Temperature         ... 298.15 K
Pressure            ... 1.00 atm
Total Mass          ... 137.18 AMU

Throughout the following assumptions are being made:
  (1) The electronic state is orbitally nondegenerate
      but the spin degeneracy is treated
  (2) There are no thermally accessible electronically excited states
  (3) Hindered rotations indicated by low frequency modes are not
      treated as such but are treated as vibrations and this may
      cause some error
  (4) All equations used are the standard statistical mechanics
      equations for an ideal gas
  (5) All vibrations are strictly harmonic

freq.      77.72  E(vib)   ...       0.49
freq.     102.03  E(vib)   ...       0.46
freq.     155.06  E(vib)   ...       0.40
freq.     182.43  E(vib)   ...       0.37
freq.     229.86  E(vib)   ...       0.32
freq.     293.70  E(vib)   ...       0.27
freq.     314.67  E(vib)   ...       0.25
freq.     324.64  E(vib)   ...       0.24
freq.     350.59  E(vib)   ...       0.23
freq.     443.07  E(vib)   ...       0.17
freq.     532.26  E(vib)   ...       0.13
freq.     535.10  E(vib)   ...       0.13
freq.     565.04  E(vib)   ...       0.11
freq.     582.42  E(vib)   ...       0.11
freq.     616.24  E(vib)   ...       0.09
freq.     720.15  E(vib)   ...       0.07
freq.     765.48  E(vib)   ...       0.06
freq.     920.54  E(vib)   ...       0.03
freq.     938.05  E(vib)   ...       0.03
freq.     941.47  E(vib)   ...       0.03
freq.    1015.40  E(vib)   ...       0.02
freq.    1018.61  E(vib)   ...       0.02
freq.    1033.03  E(vib)   ...       0.02
freq.    1061.78  E(vib)   ...       0.02
freq.    1113.67  E(vib)   ...       0.01
freq.    1140.76  E(vib)   ...       0.01
freq.    1160.73  E(vib)   ...       0.01
freq.    1181.72  E(vib)   ...       0.01
freq.    1234.21  E(vib)   ...       0.01
freq.    1312.44  E(vib)   ...       0.01
freq.    1323.44  E(vib)   ...       0.01
freq.    1384.55  E(vib)   ...       0.00
freq.    1415.01  E(vib)   ...       0.00
freq.    1423.10  E(vib)   ...       0.00
freq.    1433.18  E(vib)   ...       0.00
freq.    1446.79  E(vib)   ...       0.00
freq.    1464.19  E(vib)   ...       0.00
freq.    1465.17  E(vib)   ...       0.00
freq.    1481.88  E(vib)   ...       0.00
freq.    1483.02  E(vib)   ...       0.00
freq.    1487.37  E(vib)   ...       0.00
freq.    1502.86  E(vib)   ...       0.00
freq.    1509.54  E(vib)   ...       0.00
freq.    1581.43  E(vib)   ...       0.00
freq.    1663.24  E(vib)   ...       0.00
freq.    3060.15  E(vib)   ...       0.00
freq.    3080.18  E(vib)   ...       0.00
freq.    3105.45  E(vib)   ...       0.00
freq.    3117.58  E(vib)   ...       0.00
freq.    3148.50  E(vib)   ...       0.00
freq.    3181.85  E(vib)   ...       0.00
freq.    3197.66  E(vib)   ...       0.00
freq.    3205.12  E(vib)   ...       0.00
freq.    3221.48  E(vib)   ...       0.00
freq.    3241.16  E(vib)   ...       0.00
freq.    3251.13  E(vib)   ...       0.00

------------
INNER ENERGY
------------

The inner energy is: U= E(el) + E(ZPE) + E(vib) + E(rot) + E(trans)
    E(el)   - is the total energy from the electronic structure calculation
              = E(kin-el) + E(nuc-el) + E(el-el) + E(nuc-nuc)
    E(ZPE)  - the the zero temperature vibrational energy from the frequency calculation
    E(vib)  - the the finite temperature correction to E(ZPE) due to population
              of excited vibrational states
    E(rot)  - is the rotational thermal energy
    E(trans)- is the translational thermal energy

Summary of contributions to the inner energy U:
Electronic energy                ...   -441.13671862 Eh
Zero point energy                ...      0.17709996 Eh     111.13 kcal/mol
Thermal vibrational correction   ...      0.00666289 Eh       4.18 kcal/mol
Thermal rotational correction    ...      0.00141627 Eh       0.89 kcal/mol
Thermal translational correction ...      0.00141627 Eh       0.89 kcal/mol
-----------------------------------------------------------------------
Total thermal energy                   -440.95012324 Eh

Summary of corrections to the electronic energy:
(perhaps to be used in another calculation)
Total thermal correction                  0.00949543 Eh       5.96 kcal/mol
Non-thermal (ZPE) correction              0.17709996 Eh     111.13 kcal/mol
-----------------------------------------------------------------------
Total correction                          0.18659538 Eh     117.09 kcal/mol

--------
ENTHALPY
--------

The enthalpy is H = U + kB*T
                kB is Boltzmann's constant
Total free energy                 ...   -440.95012324 Eh
Thermal Enthalpy correction       ...      0.00094421 Eh       0.59 kcal/mol
-----------------------------------------------------------------------
Total Enthalpy                    ...   -440.94917903 Eh

Note: Only C1 symmetry has been detected, increase convergence thresholds
      if your molecule has a higher symmetry. Symmetry factor of 1.0 is
      used for the rotational entropy correction.

Note: Rotational entropy computed according to Herzberg
Infrared and Raman Spectra, Chapter V,1, Van Nostrand Reinhold, 1945
Point Group:  C1, Symmetry Number:   1
Rotational constants in cm-1:     0.061054     0.042957     0.025576

Vibrational entropy computed according to the QRRHO of S. Grimme
Chem.Eur.J. 2012 18 9955

-------
ENTROPY
-------

The entropy contributions are T*S = T*(S(el)+S(vib)+S(rot)+S(trans))
     S(el)   - electronic entropy
     S(vib)  - vibrational entropy
     S(rot)  - rotational entropy
     S(trans)- translational entropy
The entropies will be listed as multiplied by the temperature to get
units of energy

Electronic entropy                ...      0.00065446 Eh      0.41 kcal/mol
Vibrational entropy               ...      0.01120379 Eh      7.03 kcal/mol
Rotational entropy                ...      0.01404743 Eh      8.81 kcal/mol
Translational entropy             ...      0.01931898 Eh     12.12 kcal/mol
-----------------------------------------------------------------------
Final entropy term                ...      0.04522465 Eh     28.38 kcal/mol

In case the symmetry of your molecule has not been determined correctly
or in case you have a reason to use a different symmetry number we print
out the resulting rotational entropy values for sn=1,12 :
 --------------------------------------------------------
|  sn= 1 | S(rot)=       0.01404743 Eh      8.81 kcal/mol|
|  sn= 2 | S(rot)=       0.01339297 Eh      8.40 kcal/mol|
|  sn= 3 | S(rot)=       0.01301014 Eh      8.16 kcal/mol|
|  sn= 4 | S(rot)=       0.01273852 Eh      7.99 kcal/mol|
|  sn= 5 | S(rot)=       0.01252783 Eh      7.86 kcal/mol|
|  sn= 6 | S(rot)=       0.01235568 Eh      7.75 kcal/mol|

                             ****ORCA TERMINATED NORMALLY****
TOTAL RUN TIME: 0 days 0 hours 17 minutes 27 seconds 538 msec
