                         Program Version 5.0.4 -  RELEASE  -
|  1> ! B3LYP EPR-II OPT
|  2> %pal nprocs 16 end
|  3> *XYZFile 1 2 model.xyz
|  4>
|  5>                          ****END OF INPUT****
 Total Charge           Charge          ....    1
 Multiplicity           Mult            ....    2
 Number of Electrons    NEL             ....   73
FINAL SINGLE POINT ENERGY      -440.965808408674
FINAL SINGLE POINT ENERGY      -440.980636004895
FINAL SINGLE POINT ENERGY      -440.984234696689
FINAL SINGLE POINT ENERGY      -440.984900502664
FINAL SINGLE POINT ENERGY      -440.985278576810
FINAL SINGLE POINT ENERGY      -440.985500182194
FINAL SINGLE POINT ENERGY      -440.985785255720
FINAL SINGLE POINT ENERGY      -440.986050670001
FINAL SINGLE POINT ENERGY      -440.986186454615
FINAL SINGLE POINT ENERGY      -440.986229144906
FINAL SINGLE POINT ENERGY      -440.986265734275
FINAL SINGLE POINT ENERGY      -440.986287293056
FINAL SINGLE POINT ENERGY      -440.986331309491
FINAL SINGLE POINT ENERGY      -440.986381504872
FINAL SINGLE POINT ENERGY      -440.986429397300
FINAL SINGLE POINT ENERGY      -440.986439172569
FINAL SINGLE POINT ENERGY      -440.986441385729
                    ***********************HURRAY********************

CARTESIAN COORDINATES (ANGSTROEM)
---------------------------------
  N     -1.673229    0.012208   -0.019092
  C     -3.159410   -0.049754   -0.040751
  C     -1.035013    1.184362   -0.006610
  C      0.414076    1.248375    0.011188
  O      0.966500    2.379181    0.022853
  C      1.160193   -0.008319    0.015054
  C      2.654456    0.033227    0.031854
  C      0.428378   -1.221335    0.001066
  C      1.116890   -2.567837    0.003912
  C     -0.967713   -1.168234   -0.015605
  H     -3.481645   -0.548050   -0.956984
  H     -3.505197   -0.606301    0.832137
  H     -3.558176    0.963021   -0.012274
  H     -1.614949    2.101084   -0.009670
  H      3.042374   -0.518165    0.897284
  H      3.057389   -0.464459   -0.859620
  H      3.016327    1.059961    0.063772
  H      1.743395   -2.678726    0.894708
  H      0.396507   -3.387896   -0.010634
  H      1.768823   -2.669535   -0.869516
  H     -1.573475   -2.067807   -0.026572

 Multiplicity           Mult            ....    2
 Number of Electrons    NEL             ....   73
 Basis Dimension        Dim             ....  247

ORBITAL ENERGIES
----------------
                 SPIN UP ORBITALS
  NO   OCC          E(Eh)            E(eV)
   0   1.0000     -19.322494      -525.7918
   1   1.0000     -14.627290      -398.0288
   2   1.0000     -10.451090      -284.3886
   3   1.0000     -10.449353      -284.3413
   4   1.0000     -10.445045      -284.2241
   5   1.0000     -10.418075      -283.4902
   6   1.0000     -10.408074      -283.2181
   7   1.0000     -10.407224      -283.1949
   8   1.0000     -10.343298      -281.4554
   9   1.0000     -10.335798      -281.2513
  10   1.0000      -1.218416       -33.1548
  11   1.0000      -1.199623       -32.6434
  12   1.0000      -1.022473       -27.8229
  13   1.0000      -0.967421       -26.3249
  14   1.0000      -0.930753       -25.3271
  15   1.0000      -0.894385       -24.3375
  16   1.0000      -0.855007       -23.2659
  17   1.0000      -0.795365       -21.6430
  18   1.0000      -0.788017       -21.4430
  19   1.0000      -0.715748       -19.4765
  20   1.0000      -0.710385       -19.3306
  21   1.0000      -0.668514       -18.1912
  22   1.0000      -0.648584       -17.6489
  23   1.0000      -0.626439       -17.0463
  24   1.0000      -0.611440       -16.6381
  25   1.0000      -0.610246       -16.6056
  26   1.0000      -0.597051       -16.2466
  27   1.0000      -0.578748       -15.7485
  28   1.0000      -0.572656       -15.5828
  29   1.0000      -0.561282       -15.2732
  30   1.0000      -0.559868       -15.2348
  31   1.0000      -0.545464       -14.8428
  32   1.0000      -0.536510       -14.5992
  33   1.0000      -0.528817       -14.3899
  34   1.0000      -0.462665       -12.5898
  35   1.0000      -0.444012       -12.0822
  36   1.0000      -0.417847       -11.3702
  37   0.0000      -0.252938        -6.8828
  38   0.0000      -0.194664        -5.2971
  39   0.0000      -0.136545        -3.7156
  40   0.0000      -0.110828        -3.0158
  41   0.0000      -0.096710        -2.6316

                 SPIN DOWN ORBITALS
  NO   OCC          E(Eh)            E(eV)
   0   1.0000     -19.309252      -525.4315
   1   1.0000     -14.628998      -398.0753
   2   1.0000     -10.451482      -284.3993
   3   1.0000     -10.446399      -284.2610
   4   1.0000     -10.441413      -284.1253
   5   1.0000     -10.414073      -283.3813
   6   1.0000     -10.409793      -283.2649
   7   1.0000     -10.407152      -283.1930
   8   1.0000     -10.343228      -281.4535
   9   1.0000     -10.335946      -281.2554
  10   1.0000      -1.208596       -32.8876
  11   1.0000      -1.183485       -32.2043
  12   1.0000      -1.018721       -27.7208
  13   1.0000      -0.957146       -26.0453
  14   1.0000      -0.927419       -25.2363
  15   1.0000      -0.892449       -24.2848
  16   1.0000      -0.853096       -23.2139
  17   1.0000      -0.790924       -21.5221
  18   1.0000      -0.785058       -21.3625
  19   1.0000      -0.713414       -19.4130
  20   1.0000      -0.708282       -19.2733
  21   1.0000      -0.664630       -18.0855
  22   1.0000      -0.645557       -17.5665
  23   1.0000      -0.624184       -16.9849
  24   1.0000      -0.601597       -16.3703
  25   1.0000      -0.600177       -16.3317
  26   1.0000      -0.596490       -16.2313
  27   1.0000      -0.570215       -15.5164
  28   1.0000      -0.565032       -15.3753
  29   1.0000      -0.558622       -15.2009
  30   1.0000      -0.556422       -15.1410
  31   1.0000      -0.535154       -14.5623
  32   1.0000      -0.527545       -14.3552
  33   1.0000      -0.517517       -14.0824
  34   1.0000      -0.451642       -12.2898
  35   1.0000      -0.430891       -11.7251
  36   0.0000      -0.320965        -8.7339
  37   0.0000      -0.229601        -6.2478
  38   0.0000      -0.176155        -4.7934
  39   0.0000      -0.136071        -3.7027
  40   0.0000      -0.110438        -3.0052

MULLIKEN ATOMIC CHARGES AND SPIN POPULATIONS
--------------------------------------------
   0 N :    0.338100   -0.075532
   1 C :   -0.412023    0.003681
   2 C :   -0.177730    0.312307
   3 C :    0.093284   -0.113631
   4 O :   -0.177363    0.498136
   5 C :    0.202914    0.279937
   6 C :   -0.536457   -0.010136
   7 C :    0.371458   -0.111701
   8 C :   -0.537218    0.006462
   9 C :   -0.271300    0.230400
  10 H :    0.211817   -0.002984
  11 H :    0.209311   -0.002900
  12 H :    0.181829   -0.000423
  13 H :    0.194292   -0.015072
  14 H :    0.188714    0.011553
  15 H :    0.191413    0.012299
  16 H :    0.205533   -0.000552
  17 H :    0.191875   -0.004337
  18 H :    0.162709   -0.000468
  19 H :    0.191629   -0.004299
  20 H :    0.177213   -0.012739
Sum of atomic charges         :    1.0000000

LOEWDIN ATOMIC CHARGES AND SPIN POPULATIONS
-------------------------------------------
   0 N :    0.145208   -0.048952
   1 C :    0.079230    0.000999
   2 C :    0.107948    0.253844
   3 C :   -0.088843   -0.042818
   4 O :   -0.017099    0.478055
   5 C :    0.037569    0.217613
   6 C :    0.002818    0.004254
   7 C :   -0.049561   -0.065759
   8 C :   -0.001851   -0.000270
   9 C :    0.062733    0.191324
  10 H :    0.060222   -0.002062
  11 H :    0.059824   -0.001987
  12 H :    0.056358   -0.000121
  13 H :    0.084361    0.000376
  14 H :    0.070131    0.010741
  15 H :    0.071709    0.011447
  16 H :    0.065326    0.000120
  17 H :    0.062490   -0.003630
  18 H :    0.051240   -0.000248
  19 H :    0.062543   -0.003601
  20 H :    0.077645    0.000675

  Mayer bond orders larger than 0.100000
B(  0-N ,  1-C ) :   0.9065 B(  0-N ,  2-C ) :   1.4415 B(  0-N ,  9-C ) :   1.2647
B(  1-C , 10-H ) :   0.9390 B(  1-C , 11-H ) :   0.9403 B(  1-C , 12-H ) :   0.9517
B(  2-C ,  3-C ) :   1.1747 B(  2-C ,  4-O ) :   0.1095 B(  2-C ,  9-C ) :   0.1109
B(  2-C , 13-H ) :   0.9287 B(  3-C ,  4-O ) :   1.6940 B(  3-C ,  5-C ) :   1.1463
B(  5-C ,  6-C ) :   0.9248 B(  5-C ,  7-C ) :   1.4543 B(  5-C ,  9-C ) :   0.1525
B(  6-C , 14-H ) :   0.9357 B(  6-C , 15-H ) :   0.9335 B(  6-C , 16-H ) :   0.9509
B(  7-C ,  8-C ) :   0.8957 B(  7-C ,  9-C ) :   1.4318 B(  8-C , 17-H ) :   0.9453
B(  8-C , 18-H ) :   0.9703 B(  8-C , 19-H ) :   0.9452 B(  9-C , 20-H ) :   0.9276

FINAL SINGLE POINT ENERGY      -440.986442090837

DIPOLE MOMENT
-------------
                                X             Y             Z
Electronic contribution:     -1.09628       6.71999       0.02552
Nuclear contribution   :     -0.55880      -8.14049      -0.05673
                        -----------------------------------------
Total Dipole Moment    :     -1.65508      -1.42050      -0.03121
                        -----------------------------------------
Magnitude (a.u.)       :      2.18130
Magnitude (Debye)      :      5.54443

Rotational constants in cm-1:     0.059772     0.042129     0.025060
Rotational constants in MHz :  1791.908875  1262.988532   751.274234

                             ****ORCA TERMINATED NORMALLY****
TOTAL RUN TIME: 0 days 0 hours 14 minutes 26 seconds 691 msec
