                         Program Version 5.0.4 -  RELEASE  -
|  1> ! B3LYP EPR-II AUTOAUX
|  2> %pal nprocs 16 end
|  3> *XYZFile 0 2 opt_EPRII.xyz
|  4> %EPRNMR
|  5>         GTENSOR   TRUE
|  6>         NUCLEI    = 1,5,11,12,13,14,15,16,20 {SHIFT, AISO, ADIP, AORB}
|  7>         ORI       GIAO
|  8> END
|  9>
| 10>                          ****END OF INPUT****

CARTESIAN COORDINATES (ANGSTROEM)
---------------------------------
  N     -1.666148   -0.007054    0.020474
  C     -3.131635   -0.042429   -0.008106
  C     -1.017430    1.186692   -0.018156
  C      0.418154    1.290494   -0.073212
  O      0.979656    2.404966   -0.100933
  C      1.176070   -0.007630   -0.093164
  C      2.546673    0.036155   -0.143651
  C      0.406633   -1.244918   -0.054089
  C      1.106797   -2.585685   -0.063466
  C     -0.964813   -1.201096   -0.001970
  H     -3.498549   -0.113699   -1.037877
  H     -3.488914   -0.904155    0.559652
  H     -3.525126    0.866671    0.449376
  H     -1.619869    2.087449   -0.003665
  H      3.154815   -0.860957   -0.158894
  H      3.041671    1.000287   -0.168936
  H      1.776432   -2.684867    0.798503
  H      0.387505   -3.408613   -0.031911
  H      1.718802   -2.702279   -0.965137
  H     -1.574825   -2.096531    0.028862

 Total Charge           Charge          ....    0
 Multiplicity           Mult            ....    2
 Number of Electrons    NEL             ....   73
 Basis Dimension        Dim             ....  240

ORBITAL ENERGIES
----------------
                 SPIN UP ORBITALS
  NO   OCC          E(Eh)            E(eV)
   0   1.0000     -19.091979      -519.5192
   1   1.0000     -14.418561      -392.3490
   2   1.0000     -10.251585      -278.9598
   3   1.0000     -10.248184      -278.8673
   4   1.0000     -10.234833      -278.5040
   5   1.0000     -10.231938      -278.4252
   6   1.0000     -10.217308      -278.0271
   7   1.0000     -10.200772      -277.5771
   8   1.0000     -10.190015      -277.2844
   9   1.0000     -10.181218      -277.0450
  10   1.0000      -1.006353       -27.3843
  11   1.0000      -0.988157       -26.8891
  12   1.0000      -0.829507       -22.5720
  13   1.0000      -0.768099       -20.9010
  14   1.0000      -0.752267       -20.4702
  15   1.0000      -0.718972       -19.5642
  16   1.0000      -0.668839       -18.2000
  17   1.0000      -0.601629       -16.3712
  18   1.0000      -0.591819       -16.1042
  19   1.0000      -0.525302       -14.2942
  20   1.0000      -0.519801       -14.1445
  21   1.0000      -0.490593       -13.3497
  22   1.0000      -0.469665       -12.7802
  23   1.0000      -0.441407       -12.0113
  24   1.0000      -0.434073       -11.8117
  25   1.0000      -0.427851       -11.6424
  26   1.0000      -0.416609       -11.3365
  27   1.0000      -0.403709       -10.9855
  28   1.0000      -0.397571       -10.8185
  29   1.0000      -0.397420       -10.8143
  30   1.0000      -0.371742       -10.1156
  31   1.0000      -0.352666        -9.5965
  32   1.0000      -0.351733        -9.5712
  33   1.0000      -0.297340        -8.0910
  34   1.0000      -0.235122        -6.3980
  35   1.0000      -0.230414        -6.2699
  36   1.0000      -0.171115        -4.6563
  37   0.0000      -0.021688        -0.5902
  38   0.0000      -0.003327        -0.0905
  39   0.0000       0.005545         0.1509
  40   0.0000       0.019737         0.5371
  41   0.0000       0.045030         1.2253

                 SPIN DOWN ORBITALS
  NO   OCC          E(Eh)            E(eV)
   0   1.0000     -19.086751      -519.3769
   1   1.0000     -14.414889      -392.2491
   2   1.0000     -10.251645      -278.9614
   3   1.0000     -10.248383      -278.8727
   4   1.0000     -10.236579      -278.5515
   5   1.0000     -10.227004      -278.2909
   6   1.0000     -10.214629      -277.9542
   7   1.0000     -10.202799      -277.6323
   8   1.0000     -10.190195      -277.2893
   9   1.0000     -10.176041      -276.9042
  10   1.0000      -0.998795       -27.1786
  11   1.0000      -0.979393       -26.6506
  12   1.0000      -0.826680       -22.4951
  13   1.0000      -0.761549       -20.7228
  14   1.0000      -0.749740       -20.4015
  15   1.0000      -0.715475       -19.4691
  16   1.0000      -0.662263       -18.0211
  17   1.0000      -0.597279       -16.2528
  18   1.0000      -0.586013       -15.9462
  19   1.0000      -0.522915       -14.2292
  20   1.0000      -0.518028       -14.0962
  21   1.0000      -0.482665       -13.1340
  22   1.0000      -0.466407       -12.6916
  23   1.0000      -0.440407       -11.9841
  24   1.0000      -0.432308       -11.7637
  25   1.0000      -0.424406       -11.5487
  26   1.0000      -0.413649       -11.2559
  27   1.0000      -0.402090       -10.9414
  28   1.0000      -0.393611       -10.7107
  29   1.0000      -0.385368       -10.4864
  30   1.0000      -0.369772       -10.0620
  31   1.0000      -0.349253        -9.5037
  32   1.0000      -0.336324        -9.1518
  33   1.0000      -0.283209        -7.7065
  34   1.0000      -0.225020        -6.1231
  35   1.0000      -0.212329        -5.7778
  36   0.0000      -0.094088        -2.5603
  37   0.0000      -0.003340        -0.0909
  38   0.0000      -0.001160        -0.0316
  39   0.0000       0.020018         0.5447
  40   0.0000       0.021917         0.5964

MULLIKEN ATOMIC CHARGES AND SPIN POPULATIONS
--------------------------------------------
   0 N :    0.324222    0.133374
   1 C :   -0.445619   -0.011094
   2 C :   -0.304852    0.369611
   3 C :    0.091191    0.006666
   4 O :   -0.352632    0.194417
   5 C :    0.291213   -0.126877
   6 C :   -0.548420    0.406099
   7 C :    0.349086    0.176509
   8 C :   -0.608262   -0.012958
   9 C :   -0.380415   -0.120481
  10 H :    0.184511    0.011001
  11 H :    0.161259    0.000780
  12 H :    0.165740    0.004237
  13 H :    0.136388   -0.017989
  14 H :    0.147577   -0.015698
  15 H :    0.184236   -0.016639
  16 H :    0.171424    0.006785
  17 H :    0.144301    0.000296
  18 H :    0.171038    0.006513
  19 H :    0.118014    0.005449
Sum of atomic charges         :   -0.0000000

LOEWDIN ATOMIC CHARGES AND SPIN POPULATIONS
-------------------------------------------
   0 N :    0.090748    0.136928
   1 C :    0.031206    0.000555
   2 C :   -0.028256    0.301249
   3 C :   -0.092303    0.032832
   4 O :   -0.185607    0.186920
   5 C :   -0.086360   -0.075872
   6 C :   -0.015340    0.332191
   7 C :   -0.073670    0.134818
   8 C :   -0.036320   -0.000991
   9 C :   -0.063476   -0.075356
  10 H :    0.042306    0.007118
  11 H :    0.041262    0.000709
  12 H :    0.044245    0.002659
  13 H :    0.058049    0.002486
  14 H :    0.036446    0.002474
  15 H :    0.052488    0.002152
  16 H :    0.046254    0.005162
  17 H :    0.039106    0.000011
  18 H :    0.046163    0.005051
  19 H :    0.053058   -0.001096

  Mayer bond orders larger than 0.100000
B(  0-N ,  1-C ) :   0.9491 B(  0-N ,  2-C ) :   1.3243 B(  0-N ,  9-C ) :   1.1915
B(  1-C , 10-H ) :   0.9450 B(  1-C , 11-H ) :   0.9612 B(  1-C , 12-H ) :   0.9607
B(  2-C ,  3-C ) :   1.2104 B(  2-C ,  4-O ) :   0.1076 B(  2-C ,  9-C ) :   0.1017
B(  2-C , 13-H ) :   0.9642 B(  3-C ,  4-O ) :   1.7580 B(  3-C ,  5-C ) :   0.9915
B(  5-C ,  6-C ) :   1.4436 B(  5-C ,  7-C ) :   1.2584 B(  5-C ,  9-C ) :   0.1269
B(  6-C , 14-H ) :   0.9589 B(  6-C , 15-H ) :   0.9573 B(  7-C ,  8-C ) :   0.8658
B(  7-C ,  9-C ) :   1.5703 B(  8-C , 16-H ) :   0.9578 B(  8-C , 17-H ) :   0.9869
B(  8-C , 18-H ) :   0.9580 B(  9-C , 19-H ) :   0.9565

FINAL SINGLE POINT ENERGY      -440.606351161256

DIPOLE MOMENT
-------------
                                X             Y             Z
Electronic contribution:      1.30275       6.41386       0.04150
Nuclear contribution   :     -3.06496      -8.14231       0.00795
                        -----------------------------------------
Total Dipole Moment    :     -1.76221      -1.72845       0.04944
                        -----------------------------------------
Magnitude (a.u.)       :      2.46888
Magnitude (Debye)      :      6.27540

Rotational constants in cm-1:     0.058678     0.044313     0.025493
Rotational constants in MHz :  1759.113780  1328.470178   764.264948

CHEMICAL SHIELDING SUMMARY (ppm)  --  Orbital contribution
----------------------------------------------------------

  Nucleus  Element    Isotropic     Anisotropy
  -------  -------  ------------   ------------
      0       N           93.605        156.106
      4       O         -182.123       -776.686
     10       H           28.410          8.011
     11       H           28.950          6.952
     12       H           28.939          7.133
     13       H           25.923          7.307
     14       H           26.873          6.247
     15       H           25.830          4.607
     19       H           26.145          7.912

                             ****ORCA TERMINATED NORMALLY****
TOTAL RUN TIME: 0 days 0 hours 3 minutes 24 seconds 573 msec
