                         Program Version 5.0.4 -  RELEASE  -
|  1> ! M062X def2-TZVP OPT FREQ
|  2> %pal nprocs 16 end
|  3> *XYZFile 0 2 opt_EPRII.xyz
|  4>
|  5>                          ****END OF INPUT****
 Total Charge           Charge          ....    0
 Multiplicity           Mult            ....    2
 Number of Electrons    NEL             ....   73
FINAL SINGLE POINT ENERGY      -440.765100481551
FINAL SINGLE POINT ENERGY      -440.767447515739
FINAL SINGLE POINT ENERGY      -440.767530763148
FINAL SINGLE POINT ENERGY      -440.767548956117
FINAL SINGLE POINT ENERGY      -440.767555920581
FINAL SINGLE POINT ENERGY      -440.767560955439
FINAL SINGLE POINT ENERGY      -440.767564907596
FINAL SINGLE POINT ENERGY      -440.767571148061
FINAL SINGLE POINT ENERGY      -440.767571649507
                    ***********************HURRAY********************

CARTESIAN COORDINATES (ANGSTROEM)
---------------------------------
  N     -1.652591   -0.004585    0.020124
  C     -3.106951   -0.046517   -0.006013
  C     -1.008952    1.174290   -0.011196
  C      0.412862    1.276481   -0.062850
  O      0.968051    2.376625   -0.084314
  C      1.166245   -0.012139   -0.088340
  C      2.511745    0.022887   -0.136909
  C      0.393409   -1.241482   -0.057448
  C      1.098962   -2.562480   -0.075357
  C     -0.955318   -1.193393   -0.007704
  H     -3.467499   -0.212827   -1.022502
  H     -3.458681   -0.852189    0.635741
  H     -3.498193    0.897508    0.363953
  H     -1.604985    2.075249    0.004852
  H      3.110688   -0.877164   -0.153640
  H      3.014244    0.980007   -0.158325
  H      1.766267   -2.654787    0.784489
  H      0.390992   -3.389562   -0.051619
  H      1.712985   -2.658810   -0.973437
  H     -1.567379   -2.084315    0.014194

 Multiplicity           Mult            ....    2
 Number of Electrons    NEL             ....   73
 Basis Dimension        Dim             ....  370

ORBITAL ENERGIES
----------------
                 SPIN UP ORBITALS
  NO   OCC          E(Eh)            E(eV)
   0   1.0000     -19.577433      -532.7290
   1   1.0000     -14.834254      -403.6606
   2   1.0000     -10.601983      -288.4946
   3   1.0000     -10.598077      -288.3883
   4   1.0000     -10.585267      -288.0397
   5   1.0000     -10.583838      -288.0009
   6   1.0000     -10.559967      -287.3513
   7   1.0000     -10.543555      -286.9047
   8   1.0000     -10.540395      -286.8187
   9   1.0000     -10.528432      -286.4932
  10   1.0000      -1.136011       -30.9124
  11   1.0000      -1.117253       -30.4020
  12   1.0000      -0.940123       -25.5821
  13   1.0000      -0.872773       -23.7494
  14   1.0000      -0.854392       -23.2492
  15   1.0000      -0.817334       -22.2408
  16   1.0000      -0.761942       -20.7335
  17   1.0000      -0.689615       -18.7654
  18   1.0000      -0.677866       -18.4457
  19   1.0000      -0.605770       -16.4838
  20   1.0000      -0.604338       -16.4449
  21   1.0000      -0.574102       -15.6221
  22   1.0000      -0.543638       -14.7931
  23   1.0000      -0.512284       -13.9399
  24   1.0000      -0.506188       -13.7741
  25   1.0000      -0.503672       -13.7056
  26   1.0000      -0.495324       -13.4784
  27   1.0000      -0.478667       -13.0252
  28   1.0000      -0.476253       -12.9595
  29   1.0000      -0.469477       -12.7751
  30   1.0000      -0.438477       -11.9316
  31   1.0000      -0.432932       -11.7807
  32   1.0000      -0.417181       -11.3521
  33   1.0000      -0.364503        -9.9186
  34   1.0000      -0.311648        -8.4804
  35   1.0000      -0.296378        -8.0649
  36   1.0000      -0.216681        -5.8962
  37   0.0000       0.010561         0.2874
  38   0.0000       0.039579         1.0770
  39   0.0000       0.054865         1.4930
  40   0.0000       0.077249         2.1020
  41   0.0000       0.093719         2.5502

                 SPIN DOWN ORBITALS
  NO   OCC          E(Eh)            E(eV)
   0   1.0000     -19.572992      -532.6082
   1   1.0000     -14.831512      -403.5860
   2   1.0000     -10.602125      -288.4985
   3   1.0000     -10.598338      -288.3954
   4   1.0000     -10.586129      -288.0632
   5   1.0000     -10.581503      -287.9373
   6   1.0000     -10.558907      -287.3225
   7   1.0000     -10.544447      -286.9290
   8   1.0000     -10.540509      -286.8218
   9   1.0000     -10.526728      -286.4468
  10   1.0000      -1.125783       -30.6341
  11   1.0000      -1.106947       -30.1215
  12   1.0000      -0.937602       -25.5135
  13   1.0000      -0.865607       -23.5544
  14   1.0000      -0.851681       -23.1754
  15   1.0000      -0.813819       -22.1452
  16   1.0000      -0.755833       -20.5673
  17   1.0000      -0.685020       -18.6404
  18   1.0000      -0.672764       -18.3068
  19   1.0000      -0.602516       -16.3953
  20   1.0000      -0.600400       -16.3377
  21   1.0000      -0.562192       -15.2980
  22   1.0000      -0.539415       -14.6782
  23   1.0000      -0.510007       -13.8780
  24   1.0000      -0.503546       -13.7022
  25   1.0000      -0.498868       -13.5749
  26   1.0000      -0.489418       -13.3177
  27   1.0000      -0.475619       -12.9422
  28   1.0000      -0.466066       -12.6823
  29   1.0000      -0.460579       -12.5330
  30   1.0000      -0.436087       -11.8665
  31   1.0000      -0.413953       -11.2642
  32   1.0000      -0.408367       -11.1122
  33   1.0000      -0.350835        -9.5467
  34   1.0000      -0.303882        -8.2691
  35   1.0000      -0.269150        -7.3240
  36   0.0000      -0.067660        -1.8411
  37   0.0000       0.033269         0.9053
  38   0.0000       0.053398         1.4530
  39   0.0000       0.057168         1.5556
  40   0.0000       0.075018         2.0413

MULLIKEN ATOMIC CHARGES AND SPIN POPULATIONS
--------------------------------------------
   0 N :   -0.033240    0.169548
   1 C :   -0.323908   -0.013473
   2 C :   -0.106612    0.352280
   3 C :    0.143630    0.028444
   4 O :   -0.392608    0.233447
   5 C :    0.061946   -0.124110
   6 C :   -0.359453    0.297374
   7 C :    0.011306    0.183285
   8 C :   -0.531333   -0.001743
   9 C :   -0.052502   -0.118608
  10 H :    0.172420    0.013271
  11 H :    0.156660    0.002789
  12 H :    0.156538    0.003514
  13 H :    0.166393   -0.014889
  14 H :    0.142689   -0.014534
  15 H :    0.163681   -0.011812
  16 H :    0.169784    0.005739
  17 H :    0.130590    0.000283
  18 H :    0.169590    0.005530
  19 H :    0.154430    0.003667
Sum of atomic charges         :    0.0000000

LOEWDIN ATOMIC CHARGES AND SPIN POPULATIONS
-------------------------------------------
   0 N :    0.224007    0.140327
   1 C :   -0.251863    0.010612
   2 C :   -0.138054    0.290128
   3 C :   -0.354218    0.070743
   4 O :    0.064177    0.199442
   5 C :   -0.153249   -0.018121
   6 C :   -0.135095    0.236206
   7 C :   -0.157375    0.085226
   8 C :   -0.253842    0.006561
   9 C :   -0.173715   -0.036494
  10 H :    0.125416    0.006460
  11 H :    0.125561    0.001295
  12 H :    0.128172    0.001517
  13 H :    0.148141   -0.000429
  14 H :    0.123009   -0.000244
  15 H :    0.136125   -0.000412
  16 H :    0.133847    0.003894
  17 H :    0.127309   -0.000075
  18 H :    0.133774    0.003750
  19 H :    0.147875   -0.000386

  Mayer bond orders larger than 0.100000
B(  0-N ,  1-C ) :   0.9236 B(  0-N ,  2-C ) :   1.2792 B(  0-N ,  9-C ) :   1.1052
B(  1-C , 10-H ) :   0.9555 B(  1-C , 11-H ) :   0.9624 B(  1-C , 12-H ) :   0.9651
B(  2-C ,  3-C ) :   1.3950 B(  2-C , 13-H ) :   0.8937 B(  3-C ,  4-O ) :   1.8869
B(  3-C ,  5-C ) :   0.9717 B(  5-C ,  6-C ) :   1.6196 B(  5-C ,  7-C ) :   1.0479
B(  6-C , 14-H ) :   0.9820 B(  6-C , 15-H ) :   0.9542 B(  7-C ,  8-C ) :   0.8964
B(  7-C ,  9-C ) :   1.7271 B(  8-C , 16-H ) :   0.9727 B(  8-C , 17-H ) :   0.9788
B(  8-C , 18-H ) :   0.9743 B(  9-C , 19-H ) :   0.8998

FINAL SINGLE POINT ENERGY      -440.767571811541

DIPOLE MOMENT
-------------
                                X             Y             Z
Electronic contribution:      1.23034       6.39435       0.08334
Nuclear contribution   :     -3.01874      -8.06766      -0.04093
                        -----------------------------------------
Total Dipole Moment    :     -1.78841      -1.67332       0.04241
                        -----------------------------------------
Magnitude (a.u.)       :      2.44953
Magnitude (Debye)      :      6.22620

VIBRATIONAL FREQUENCIES
-----------------------

Scaling factor for frequencies =  1.000000000  (already applied!)

   0:         0.00 cm**-1
   1:         0.00 cm**-1
   2:         0.00 cm**-1
   3:         0.00 cm**-1
   4:         0.00 cm**-1
   5:         0.00 cm**-1
   6:        83.49 cm**-1
   7:       114.89 cm**-1
   8:       161.55 cm**-1
   9:       207.53 cm**-1
  10:       237.04 cm**-1
  11:       298.07 cm**-1
  12:       309.66 cm**-1
  13:       344.70 cm**-1
  14:       358.62 cm**-1
  15:       437.50 cm**-1
  16:       486.80 cm**-1
  17:       531.18 cm**-1
  18:       534.94 cm**-1
  19:       584.53 cm**-1
  20:       604.52 cm**-1
  21:       710.41 cm**-1
  22:       744.06 cm**-1
  23:       807.75 cm**-1
  24:       833.72 cm**-1
  25:       856.75 cm**-1
  26:       906.56 cm**-1
  27:       927.01 cm**-1
  28:      1015.78 cm**-1
  29:      1035.29 cm**-1
  30:      1058.31 cm**-1
  31:      1122.19 cm**-1
  32:      1146.94 cm**-1
  33:      1162.88 cm**-1
  34:      1218.80 cm**-1
  35:      1266.87 cm**-1
  36:      1348.32 cm**-1
  37:      1394.77 cm**-1
  38:      1412.65 cm**-1
  39:      1425.47 cm**-1
  40:      1456.39 cm**-1
  41:      1465.61 cm**-1
  42:      1476.43 cm**-1
  43:      1493.44 cm**-1
  44:      1499.91 cm**-1
  45:      1517.76 cm**-1
  46:      1565.17 cm**-1
  47:      1599.69 cm**-1
  48:      1660.28 cm**-1
  49:      1671.74 cm**-1
  50:      3062.50 cm**-1
  51:      3076.99 cm**-1
  52:      3124.10 cm**-1
  53:      3155.54 cm**-1
  54:      3159.83 cm**-1
  55:      3190.34 cm**-1
  56:      3192.99 cm**-1
  57:      3239.03 cm**-1
  58:      3252.97 cm**-1
  59:      3289.01 cm**-1

IR SPECTRUM
-----------

 Mode   freq       eps      Int      T**2         TX        TY        TZ
       cm**-1   L/(mol*cm) km/mol    a.u.
----------------------------------------------------------------------------
  6:     83.49   0.000588    2.97  0.002197  (-0.000100 -0.000016 -0.046872)
  7:    114.89   0.000051    0.26  0.000138  ( 0.010283  0.002247  0.005217)
  8:    161.55   0.000173    0.87  0.000334  ( 0.006597  0.000676 -0.017017)
  9:    207.53   0.000204    1.03  0.000307  ( 0.001093  0.000750  0.017466)
 10:    237.04   0.000292    1.48  0.000385  (-0.001454  0.000709  0.019547)
 11:    298.07   0.000117    0.59  0.000122  ( 0.000526 -0.010620  0.003008)
 12:    309.66   0.000295    1.49  0.000297  ( 0.007450  0.002743  0.015289)
 13:    344.70   0.000154    0.78  0.000140  (-0.011792 -0.000873 -0.000076)
 14:    358.62   0.000281    1.42  0.000244  (-0.010075  0.011938  0.000350)
 15:    437.50   0.001600    8.09  0.001141  ( 0.020197 -0.027055 -0.001174)
 16:    486.80   0.000300    1.52  0.000192  ( 0.004744  0.002925 -0.012695)
 17:    531.18   0.000874    4.42  0.000513  (-0.005254 -0.002854  0.021854)
 18:    534.94   0.000616    3.11  0.000359  ( 0.006115  0.017923  0.000838)
 19:    584.53   0.000117    0.59  0.000063  (-0.006568  0.003945 -0.001972)
 20:    604.52   0.000579    2.93  0.000299  ( 0.004561 -0.016597 -0.001698)
 21:    710.41   0.000010    0.05  0.000005  ( 0.001743  0.000404  0.001145)
 22:    744.06   0.000064    0.32  0.000027  (-0.000850  0.000249 -0.005101)
 23:    807.75   0.001230    6.22  0.000475  (-0.013596 -0.017039 -0.000389)
 24:    833.72   0.005765   29.14  0.002158  (-0.004456 -0.000315 -0.046239)
 25:    856.75   0.003583   18.11  0.001305  ( 0.004463  0.000721  0.035841)
 26:    906.56   0.000112    0.56  0.000038  ( 0.001169 -0.005951  0.001293)
 27:    927.01   0.007611   38.46  0.002562  (-0.001369 -0.000290 -0.050599)
 28:   1015.78   0.000335    1.69  0.000103  (-0.008481 -0.005541  0.000467)
 29:   1035.29   0.001164    5.88  0.000351  (-0.018559 -0.001911  0.001676)
 30:   1058.31   0.000173    0.87  0.000051  (-0.000148 -0.001132  0.007044)
 31:   1122.19   0.001599    8.08  0.000445  (-0.016263 -0.013412  0.000434)
 32:   1146.94   0.004240   21.43  0.001154  ( 0.033489  0.005667 -0.000036)
 33:   1162.88   0.002153   10.88  0.000578  ( 0.023425  0.005286 -0.000982)
 34:   1218.80   0.019657   99.34  0.005033  (-0.070890 -0.002665  0.000601)
 35:   1266.87   0.000570    2.88  0.000140  ( 0.006992  0.009562 -0.000403)
 36:   1348.32   0.001902    9.61  0.000440  ( 0.020677  0.003474  0.000802)
 37:   1394.77   0.001791    9.05  0.000401  (-0.019393  0.004961  0.000245)
 38:   1412.65   0.000040    0.20  0.000009  ( 0.001856 -0.002261  0.000452)
 39:   1425.47   0.003635   18.37  0.000796  ( 0.025043 -0.012968 -0.000704)
 40:   1456.39   0.000479    2.42  0.000103  ( 0.008884  0.004762  0.000964)
 41:   1465.61   0.002395   12.10  0.000510  (-0.019719 -0.011007 -0.000119)
 42:   1476.43   0.001829    9.24  0.000387  ( 0.000856  0.000354  0.019642)
 43:   1493.44   0.001978    9.99  0.000413  ( 0.004429  0.001929 -0.019746)
 44:   1499.91   0.003671   18.55  0.000764  (-0.023536 -0.014156  0.003073)
 45:   1517.76   0.003449   17.43  0.000709  ( 0.012108 -0.023613 -0.002221)
 46:   1565.17   0.034272  173.19  0.006833  ( 0.061313  0.055412 -0.001811)
 47:   1599.69   0.012582   63.59  0.002455  ( 0.030215  0.039259 -0.000576)
 48:   1660.28   0.002372   11.99  0.000446  ( 0.001977 -0.021023  0.000082)
 49:   1671.74   0.028024  141.62  0.005231  ( 0.034372  0.063634 -0.000771)
 50:   3062.50   0.004384   22.15  0.000447  ( 0.010691 -0.018232  0.000038)
 51:   3076.99   0.008510   43.01  0.000863  (-0.028862 -0.003310 -0.004369)
 52:   3124.10   0.001381    6.98  0.000138  (-0.000470 -0.000225 -0.011735)
 53:   3155.54   0.001305    6.59  0.000129  (-0.002921 -0.001317  0.010898)
 54:   3159.83   0.001968    9.94  0.000194  ( 0.008965  0.010662 -0.000515)
 55:   3190.34   0.000459    2.32  0.000045  ( 0.000969 -0.006607 -0.000552)
 56:   3192.99   0.000769    3.89  0.000075  (-0.002557 -0.008284  0.000035)
 57:   3239.03   0.000478    2.42  0.000046  ( 0.000173  0.006785 -0.000114)
 58:   3252.97   0.000594    3.00  0.000057  ( 0.007535  0.000419 -0.000016)
 59:   3289.01   0.000159    0.81  0.000015  (-0.003660  0.001314  0.000105)

--------------------------
THERMOCHEMISTRY AT 298.15K
--------------------------

Temperature         ... 298.15 K
Pressure            ... 1.00 atm
Total Mass          ... 136.17 AMU

Throughout the following assumptions are being made:
  (1) The electronic state is orbitally nondegenerate
      but the spin degeneracy is treated
  (2) There are no thermally accessible electronically excited states
  (3) Hindered rotations indicated by low frequency modes are not
      treated as such but are treated as vibrations and this may
      cause some error
  (4) All equations used are the standard statistical mechanics
      equations for an ideal gas
  (5) All vibrations are strictly harmonic

freq.      83.49  E(vib)   ...       0.48
freq.     114.89  E(vib)   ...       0.44
freq.     161.55  E(vib)   ...       0.39
freq.     207.53  E(vib)   ...       0.34
freq.     237.04  E(vib)   ...       0.32
freq.     298.07  E(vib)   ...       0.27
freq.     309.66  E(vib)   ...       0.26
freq.     344.70  E(vib)   ...       0.23
freq.     358.62  E(vib)   ...       0.22
freq.     437.50  E(vib)   ...       0.17
freq.     486.80  E(vib)   ...       0.15
freq.     531.18  E(vib)   ...       0.13
freq.     534.94  E(vib)   ...       0.13
freq.     584.53  E(vib)   ...       0.11
freq.     604.52  E(vib)   ...       0.10
freq.     710.41  E(vib)   ...       0.07
freq.     744.06  E(vib)   ...       0.06
freq.     807.75  E(vib)   ...       0.05
freq.     833.72  E(vib)   ...       0.04
freq.     856.75  E(vib)   ...       0.04
freq.     906.56  E(vib)   ...       0.03
freq.     927.01  E(vib)   ...       0.03
freq.    1015.78  E(vib)   ...       0.02
freq.    1035.29  E(vib)   ...       0.02
freq.    1058.31  E(vib)   ...       0.02
freq.    1122.19  E(vib)   ...       0.01
freq.    1146.94  E(vib)   ...       0.01
freq.    1162.88  E(vib)   ...       0.01
freq.    1218.80  E(vib)   ...       0.01
freq.    1266.87  E(vib)   ...       0.01
freq.    1348.32  E(vib)   ...       0.01
freq.    1394.77  E(vib)   ...       0.00
freq.    1412.65  E(vib)   ...       0.00
freq.    1425.47  E(vib)   ...       0.00
freq.    1456.39  E(vib)   ...       0.00
freq.    1465.61  E(vib)   ...       0.00
freq.    1476.43  E(vib)   ...       0.00
freq.    1493.44  E(vib)   ...       0.00
freq.    1499.91  E(vib)   ...       0.00
freq.    1517.76  E(vib)   ...       0.00
freq.    1565.17  E(vib)   ...       0.00
freq.    1599.69  E(vib)   ...       0.00
freq.    1660.28  E(vib)   ...       0.00
freq.    1671.74  E(vib)   ...       0.00
freq.    3062.50  E(vib)   ...       0.00
freq.    3076.99  E(vib)   ...       0.00
freq.    3124.10  E(vib)   ...       0.00
freq.    3155.54  E(vib)   ...       0.00
freq.    3159.83  E(vib)   ...       0.00
freq.    3190.34  E(vib)   ...       0.00
freq.    3192.99  E(vib)   ...       0.00
freq.    3239.03  E(vib)   ...       0.00
freq.    3252.97  E(vib)   ...       0.00
freq.    3289.01  E(vib)   ...       0.00

------------
INNER ENERGY
------------

The inner energy is: U= E(el) + E(ZPE) + E(vib) + E(rot) + E(trans)
    E(el)   - is the total energy from the electronic structure calculation
              = E(kin-el) + E(nuc-el) + E(el-el) + E(nuc-nuc)
    E(ZPE)  - the the zero temperature vibrational energy from the frequency calculation
    E(vib)  - the the finite temperature correction to E(ZPE) due to population
              of excited vibrational states
    E(rot)  - is the rotational thermal energy
    E(trans)- is the translational thermal energy

Summary of contributions to the inner energy U:
Electronic energy                ...   -440.76757181 Eh
Zero point energy                ...      0.16594014 Eh     104.13 kcal/mol
Thermal vibrational correction   ...      0.00671375 Eh       4.21 kcal/mol
Thermal rotational correction    ...      0.00141627 Eh       0.89 kcal/mol
Thermal translational correction ...      0.00141627 Eh       0.89 kcal/mol
-----------------------------------------------------------------------
Total thermal energy                   -440.59208538 Eh

Summary of corrections to the electronic energy:
(perhaps to be used in another calculation)
Total thermal correction                  0.00954629 Eh       5.99 kcal/mol
Non-thermal (ZPE) correction              0.16594014 Eh     104.13 kcal/mol
-----------------------------------------------------------------------
Total correction                          0.17548643 Eh     110.12 kcal/mol

--------
ENTHALPY
--------

The enthalpy is H = U + kB*T
                kB is Boltzmann's constant
Total free energy                 ...   -440.59208538 Eh
Thermal Enthalpy correction       ...      0.00094421 Eh       0.59 kcal/mol
-----------------------------------------------------------------------
Total Enthalpy                    ...   -440.59114117 Eh

Note: Only C1 symmetry has been detected, increase convergence thresholds
      if your molecule has a higher symmetry. Symmetry factor of 1.0 is
      used for the rotational entropy correction.

Note: Rotational entropy computed according to Herzberg
Infrared and Raman Spectra, Chapter V,1, Van Nostrand Reinhold, 1945
Point Group:  C1, Symmetry Number:   1
Rotational constants in cm-1:     0.059818     0.045174     0.025991

Vibrational entropy computed according to the QRRHO of S. Grimme
Chem.Eur.J. 2012 18 9955

-------
ENTROPY
-------

The entropy contributions are T*S = T*(S(el)+S(vib)+S(rot)+S(trans))
     S(el)   - electronic entropy
     S(vib)  - vibrational entropy
     S(rot)  - rotational entropy
     S(trans)- translational entropy
The entropies will be listed as multiplied by the temperature to get
units of energy

Electronic entropy                ...      0.00065446 Eh      0.41 kcal/mol
Vibrational entropy               ...      0.01114564 Eh      6.99 kcal/mol
Rotational entropy                ...      0.01402572 Eh      8.80 kcal/mol
Translational entropy             ...      0.01930853 Eh     12.12 kcal/mol
-----------------------------------------------------------------------
Final entropy term                ...      0.04513435 Eh     28.32 kcal/mol

In case the symmetry of your molecule has not been determined correctly
or in case you have a reason to use a different symmetry number we print
out the resulting rotational entropy values for sn=1,12 :
 --------------------------------------------------------
|  sn= 1 | S(rot)=       0.01402572 Eh      8.80 kcal/mol|
|  sn= 2 | S(rot)=       0.01337127 Eh      8.39 kcal/mol|
|  sn= 3 | S(rot)=       0.01298844 Eh      8.15 kcal/mol|
|  sn= 4 | S(rot)=       0.01271681 Eh      7.98 kcal/mol|
|  sn= 5 | S(rot)=       0.01250612 Eh      7.85 kcal/mol|
|  sn= 6 | S(rot)=       0.01233398 Eh      7.74 kcal/mol|
|  sn= 7 | S(rot)=       0.01218843 Eh      7.65 kcal/mol|
|  sn= 8 | S(rot)=       0.01206236 Eh      7.57 kcal/mol|

                             ****ORCA TERMINATED NORMALLY****
TOTAL RUN TIME: 0 days 0 hours 21 minutes 4 seconds 457 msec
