                         Program Version 5.0.4 -  RELEASE  -
|  1> ! B3LYP EPR-II OPT
|  2> %pal nprocs 16 end
|  3> *XYZFile 0 2 model.xyz
|  4>
|  5>                          ****END OF INPUT****
 Total Charge           Charge          ....    0
 Multiplicity           Mult            ....    2
 Number of Electrons    NEL             ....   73
FINAL SINGLE POINT ENERGY      -440.549750780603
FINAL SINGLE POINT ENERGY      -440.580539735096
FINAL SINGLE POINT ENERGY      -440.595071405472
FINAL SINGLE POINT ENERGY      -440.601291092633
FINAL SINGLE POINT ENERGY      -440.604469310074
FINAL SINGLE POINT ENERGY      -440.605671826122
FINAL SINGLE POINT ENERGY      -440.606214650528
FINAL SINGLE POINT ENERGY      -440.606533395517
FINAL SINGLE POINT ENERGY      -440.606664705752
FINAL SINGLE POINT ENERGY      -440.606702325278
FINAL SINGLE POINT ENERGY      -440.606710900837
FINAL SINGLE POINT ENERGY      -440.606714522515
FINAL SINGLE POINT ENERGY      -440.606716560236
FINAL SINGLE POINT ENERGY      -440.606718254442
                    ***********************HURRAY********************

CARTESIAN COORDINATES (ANGSTROEM)
---------------------------------
  N     -1.666148   -0.007054    0.020474
  C     -3.131635   -0.042429   -0.008106
  C     -1.017430    1.186692   -0.018156
  C      0.418154    1.290494   -0.073212
  O      0.979656    2.404966   -0.100933
  C      1.176070   -0.007630   -0.093164
  C      2.546673    0.036155   -0.143651
  C      0.406633   -1.244918   -0.054089
  C      1.106797   -2.585685   -0.063466
  C     -0.964813   -1.201096   -0.001970
  H     -3.498549   -0.113699   -1.037877
  H     -3.488914   -0.904155    0.559652
  H     -3.525126    0.866671    0.449376
  H     -1.619869    2.087449   -0.003665
  H      3.154815   -0.860957   -0.158894
  H      3.041671    1.000287   -0.168936
  H      1.776432   -2.684867    0.798503
  H      0.387505   -3.408613   -0.031911
  H      1.718802   -2.702279   -0.965137
  H     -1.574825   -2.096531    0.028862

 Multiplicity           Mult            ....    2
 Number of Electrons    NEL             ....   73
 Basis Dimension        Dim             ....  240

ORBITAL ENERGIES
----------------
                 SPIN UP ORBITALS
  NO   OCC          E(Eh)            E(eV)
   0   1.0000     -19.091894      -519.5168
   1   1.0000     -14.418555      -392.3488
   2   1.0000     -10.251380      -278.9542
   3   1.0000     -10.248092      -278.8648
   4   1.0000     -10.234820      -278.5036
   5   1.0000     -10.231907      -278.4244
   6   1.0000     -10.217322      -278.0275
   7   1.0000     -10.200668      -277.5743
   8   1.0000     -10.190005      -277.2841
   9   1.0000     -10.181238      -277.0456
  10   1.0000      -1.006356       -27.3843
  11   1.0000      -0.988164       -26.8893
  12   1.0000      -0.829520       -22.5724
  13   1.0000      -0.768093       -20.9009
  14   1.0000      -0.752262       -20.4701
  15   1.0000      -0.718982       -19.5645
  16   1.0000      -0.668843       -18.2001
  17   1.0000      -0.601623       -16.3710
  18   1.0000      -0.591826       -16.1044
  19   1.0000      -0.525286       -14.2938
  20   1.0000      -0.519786       -14.1441
  21   1.0000      -0.490586       -13.3495
  22   1.0000      -0.469673       -12.7805
  23   1.0000      -0.441403       -12.0112
  24   1.0000      -0.434077       -11.8118
  25   1.0000      -0.427864       -11.6428
  26   1.0000      -0.416616       -11.3367
  27   1.0000      -0.403718       -10.9857
  28   1.0000      -0.397580       -10.8187
  29   1.0000      -0.397424       -10.8145
  30   1.0000      -0.371761       -10.1161
  31   1.0000      -0.352673        -9.5967
  32   1.0000      -0.351747        -9.5715
  33   1.0000      -0.297369        -8.0918
  34   1.0000      -0.235156        -6.3989
  35   1.0000      -0.230428        -6.2703
  36   1.0000      -0.171185        -4.6582
  37   0.0000      -0.021696        -0.5904
  38   0.0000      -0.003059        -0.0832
  39   0.0000       0.005534         0.1506
  40   0.0000       0.020045         0.5455
  41   0.0000       0.045253         1.2314

                 SPIN DOWN ORBITALS
  NO   OCC          E(Eh)            E(eV)
   0   1.0000     -19.086635      -519.3737
   1   1.0000     -14.414899      -392.2493
   2   1.0000     -10.251456      -278.9563
   3   1.0000     -10.248289      -278.8701
   4   1.0000     -10.236600      -278.5520
   5   1.0000     -10.226952      -278.2895
   6   1.0000     -10.214614      -277.9538
   7   1.0000     -10.202717      -277.6301
   8   1.0000     -10.190189      -277.2891
   9   1.0000     -10.176044      -276.9042
  10   1.0000      -0.998812       -27.1791
  11   1.0000      -0.979376       -26.6502
  12   1.0000      -0.826687       -22.4953
  13   1.0000      -0.761538       -20.7225
  14   1.0000      -0.749746       -20.4016
  15   1.0000      -0.715486       -19.4694
  16   1.0000      -0.662262       -18.0211
  17   1.0000      -0.597267       -16.2525
  18   1.0000      -0.586024       -15.9465
  19   1.0000      -0.522906       -14.2290
  20   1.0000      -0.518015       -14.0959
  21   1.0000      -0.482679       -13.1344
  22   1.0000      -0.466419       -12.6919
  23   1.0000      -0.440402       -11.9839
  24   1.0000      -0.432314       -11.7639
  25   1.0000      -0.424410       -11.5488
  26   1.0000      -0.413649       -11.2560
  27   1.0000      -0.402096       -10.9416
  28   1.0000      -0.393615       -10.7108
  29   1.0000      -0.385379       -10.4867
  30   1.0000      -0.369790       -10.0625
  31   1.0000      -0.349259        -9.5038
  32   1.0000      -0.336355        -9.1527
  33   1.0000      -0.283221        -7.7068
  34   1.0000      -0.225005        -6.1227
  35   1.0000      -0.212349        -5.7783
  36   0.0000      -0.094060        -2.5595
  37   0.0000      -0.003083        -0.0839
  38   0.0000      -0.001205        -0.0328
  39   0.0000       0.020331         0.5532
  40   0.0000       0.021928         0.5967

MULLIKEN ATOMIC CHARGES AND SPIN POPULATIONS
--------------------------------------------
   0 N :    0.323838    0.132975
   1 C :   -0.444492   -0.011025
   2 C :   -0.303444    0.370416
   3 C :    0.091243    0.006109
   4 O :   -0.352788    0.194939
   5 C :    0.290805   -0.127642
   6 C :   -0.547116    0.406810
   7 C :    0.348129    0.177582
   8 C :   -0.607281   -0.013124
   9 C :   -0.378592   -0.121752
  10 H :    0.183916    0.010966
  11 H :    0.160855    0.000757
  12 H :    0.165355    0.004238
  13 H :    0.135892   -0.018079
  14 H :    0.146993   -0.015774
  15 H :    0.183711   -0.016720
  16 H :    0.171052    0.006836
  17 H :    0.143794    0.000308
  18 H :    0.170662    0.006564
  19 H :    0.117469    0.005616
Sum of atomic charges         :   -0.0000000

LOEWDIN ATOMIC CHARGES AND SPIN POPULATIONS
-------------------------------------------
   0 N :    0.090596    0.136559
   1 C :    0.031315    0.000581
   2 C :   -0.028120    0.301812
   3 C :   -0.092028    0.032408
   4 O :   -0.185533    0.187385
   5 C :   -0.086240   -0.076366
   6 C :   -0.015375    0.332650
   7 C :   -0.073746    0.135508
   8 C :   -0.036278   -0.001042
   9 C :   -0.063483   -0.076229
  10 H :    0.042233    0.007097
  11 H :    0.041204    0.000696
  12 H :    0.044195    0.002659
  13 H :    0.058010    0.002468
  14 H :    0.036395    0.002456
  15 H :    0.052446    0.002131
  16 H :    0.046201    0.005192
  17 H :    0.039069    0.000015
  18 H :    0.046110    0.005081
  19 H :    0.053028   -0.001062

  Mayer bond orders larger than 0.100000
B(  0-N ,  1-C ) :   0.9495 B(  0-N ,  2-C ) :   1.3239 B(  0-N ,  9-C ) :   1.1913
B(  1-C , 10-H ) :   0.9453 B(  1-C , 11-H ) :   0.9612 B(  1-C , 12-H ) :   0.9607
B(  2-C ,  3-C ) :   1.2108 B(  2-C ,  4-O ) :   0.1074 B(  2-C ,  9-C ) :   0.1013
B(  2-C , 13-H ) :   0.9641 B(  3-C ,  4-O ) :   1.7573 B(  3-C ,  5-C ) :   0.9917
B(  5-C ,  6-C ) :   1.4442 B(  5-C ,  7-C ) :   1.2587 B(  5-C ,  9-C ) :   0.1265
B(  6-C , 14-H ) :   0.9590 B(  6-C , 15-H ) :   0.9573 B(  7-C ,  8-C ) :   0.8664
B(  7-C ,  9-C ) :   1.5707 B(  8-C , 16-H ) :   0.9580 B(  8-C , 17-H ) :   0.9866
B(  8-C , 18-H ) :   0.9582 B(  9-C , 19-H ) :   0.9563

FINAL SINGLE POINT ENERGY      -440.606719118731

DIPOLE MOMENT
-------------
                                X             Y             Z
Electronic contribution:      1.30328       6.41572       0.04121
Nuclear contribution   :     -3.06496      -8.14231       0.00795
                        -----------------------------------------
Total Dipole Moment    :     -1.76168      -1.72658       0.04916
                        -----------------------------------------
Magnitude (a.u.)       :      2.46719
Magnitude (Debye)      :      6.27109

Rotational constants in cm-1:     0.058678     0.044313     0.025493
Rotational constants in MHz :  1759.113780  1328.470178   764.264948

                             ****ORCA TERMINATED NORMALLY****
TOTAL RUN TIME: 0 days 0 hours 11 minutes 4 seconds 108 msec
