                         Program Version 5.0.4 -  RELEASE  -
|  1> ! B3LYP EPR-II AUTOAUX
|  2> %pal nprocs 16 end
|  3> *XYZFile 1 2 opt_EPRII.xyz
|  4> %EPRNMR
|  5>         GTENSOR   TRUE
|  6> NUCLEI    = 1,12,13,14,15,16,17,21 {SHIFT, AISO, ADIP, AORB}
|  7>         ORI       GIAO
|  8> END
|  9>
| 10>                          ****END OF INPUT****

CARTESIAN COORDINATES (ANGSTROEM)
---------------------------------
  N     -1.639000   -0.028000   -0.002500
  C     -3.104000   -0.042300    0.001900
  C     -1.009100    1.129800   -0.013900
  C      0.377400    1.181400   -0.018300
  O      1.022600    2.377500   -0.030000
  H      1.211900    2.731000    0.849900
  C      1.097700   -0.008600   -0.010000
  C      2.604600    0.001200   -0.013900
  C      0.395600   -1.203200    0.002300
  C      1.130100   -2.519100    0.012100
  C     -0.986200   -1.173800    0.010600
  H     -3.470200   -0.054400   -1.024700
  H     -3.457100   -0.931500    0.524100
  H     -3.474500    0.848300    0.509400
  H     -1.578100    2.047700   -0.020200
  H      2.972400   -0.890700   -0.521100
  H      2.960900    0.889100   -0.536200
  H      1.309800   -2.827200    1.042100
  H      0.528800   -3.274600   -0.493500
  H      2.083000   -2.407100   -0.505100
  H     -1.538800   -2.101700    0.020600

 Total Charge           Charge          ....    1
 Multiplicity           Mult            ....    2
 Number of Electrons    NEL             ....   73
 Basis Dimension        Dim             ....  247

ORBITAL ENERGIES
----------------
                 SPIN UP ORBITALS
  NO   OCC          E(Eh)            E(eV)
   0   1.0000     -19.323737      -525.8256
   1   1.0000     -14.611402      -397.5965
   2   1.0000     -10.441857      -284.1374
   3   1.0000     -10.418987      -283.5150
   4   1.0000     -10.417195      -283.4663
   5   1.0000     -10.394001      -282.8351
   6   1.0000     -10.392755      -282.8012
   7   1.0000     -10.391690      -282.7723
   8   1.0000     -10.365804      -282.0679
   9   1.0000     -10.331705      -281.1400
  10   1.0000      -1.224372       -33.3168
  11   1.0000      -1.207500       -32.8577
  12   1.0000      -1.024822       -27.8868
  13   1.0000      -0.971454       -26.4346
  14   1.0000      -0.924173       -25.1480
  15   1.0000      -0.888906       -24.1884
  16   1.0000      -0.856059       -23.2945
  17   1.0000      -0.808366       -21.9968
  18   1.0000      -0.776738       -21.1361
  19   1.0000      -0.728216       -19.8158
  20   1.0000      -0.709330       -19.3019
  21   1.0000      -0.695024       -18.9126
  22   1.0000      -0.665568       -18.1110
  23   1.0000      -0.629472       -17.1288
  24   1.0000      -0.615930       -16.7603
  25   1.0000      -0.601280       -16.3617
  26   1.0000      -0.589425       -16.0391
  27   1.0000      -0.577461       -15.7135
  28   1.0000      -0.571611       -15.5543
  29   1.0000      -0.548924       -14.9370
  30   1.0000      -0.546251       -14.8643
  31   1.0000      -0.532848       -14.4995
  32   1.0000      -0.519871       -14.1464
  33   1.0000      -0.487616       -13.2687
  34   1.0000      -0.467862       -12.7312
  35   1.0000      -0.438221       -11.9246
  36   1.0000      -0.394111       -10.7243
  37   0.0000      -0.212124        -5.7722
  38   0.0000      -0.197079        -5.3628
  39   0.0000      -0.130973        -3.5640
  40   0.0000      -0.115006        -3.1295
  41   0.0000      -0.097283        -2.6472

                 SPIN DOWN ORBITALS
  NO   OCC          E(Eh)            E(eV)
   0   1.0000     -19.323551      -525.8206
   1   1.0000     -14.609030      -397.5319
   2   1.0000     -10.440072      -284.0888
   3   1.0000     -10.419524      -283.5297
   4   1.0000     -10.417798      -283.4827
   5   1.0000     -10.394105      -282.8380
   6   1.0000     -10.393352      -282.8175
   7   1.0000     -10.390891      -282.7505
   8   1.0000     -10.352834      -281.7149
   9   1.0000     -10.331814      -281.1430
  10   1.0000      -1.222825       -33.2747
  11   1.0000      -1.204758       -32.7831
  12   1.0000      -1.021944       -27.8085
  13   1.0000      -0.970219       -26.4010
  14   1.0000      -0.919950       -25.0331
  15   1.0000      -0.886797       -24.1310
  16   1.0000      -0.844662       -22.9844
  17   1.0000      -0.804771       -21.8989
  18   1.0000      -0.768625       -20.9153
  19   1.0000      -0.726577       -19.7712
  20   1.0000      -0.707796       -19.2601
  21   1.0000      -0.693812       -18.8796
  22   1.0000      -0.659846       -17.9553
  23   1.0000      -0.626516       -17.0484
  24   1.0000      -0.614685       -16.7264
  25   1.0000      -0.597224       -16.2513
  26   1.0000      -0.587760       -15.9938
  27   1.0000      -0.575099       -15.6492
  28   1.0000      -0.568881       -15.4800
  29   1.0000      -0.546886       -14.8815
  30   1.0000      -0.542832       -14.7712
  31   1.0000      -0.527735       -14.3604
  32   1.0000      -0.514864       -14.0102
  33   1.0000      -0.472379       -12.8541
  34   1.0000      -0.465497       -12.6668
  35   1.0000      -0.433772       -11.8035
  36   0.0000      -0.277686        -7.5562
  37   0.0000      -0.191316        -5.2060
  38   0.0000      -0.185774        -5.0552
  39   0.0000      -0.130634        -3.5547
  40   0.0000      -0.113857        -3.0982

MULLIKEN ATOMIC CHARGES AND SPIN POPULATIONS
--------------------------------------------
   0 N :    0.417054    0.091326
   1 C :   -0.428763   -0.005732
   2 C :   -0.225153   -0.028545
   3 C :    0.101995    0.101312
   4 O :   -0.345844    0.004068
   5 H :    0.318704    0.004389
   6 C :    0.240970   -0.086095
   7 C :   -0.408139    0.868673
   8 C :    0.350177    0.110485
   9 C :   -0.539664   -0.005842
  10 C :   -0.321230   -0.033019
  11 H :    0.219242    0.006754
  12 H :    0.184515    0.001538
  13 H :    0.184667    0.001674
  14 H :    0.179338    0.001373
  15 H :    0.166101   -0.020771
  16 H :    0.197902   -0.020391
  17 H :    0.205511    0.003611
  18 H :    0.168655    0.000612
  19 H :    0.163119    0.002877
  20 H :    0.170844    0.001702
Sum of atomic charges         :    1.0000000

LOEWDIN ATOMIC CHARGES AND SPIN POPULATIONS
-------------------------------------------
   0 N :    0.169593    0.082036
   1 C :    0.072875    0.000000
   2 C :    0.030365   -0.013060
   3 C :   -0.035731    0.083957
   4 O :    0.023568    0.006808
   5 H :    0.110049    0.003607
   6 C :   -0.042423   -0.038860
   7 C :    0.077156    0.776835
   8 C :   -0.034765    0.086659
   9 C :    0.004389   -0.000461
  10 C :    0.023909   -0.015540
  11 H :    0.059866    0.004732
  12 H :    0.055920    0.001093
  13 H :    0.055987    0.001191
  14 H :    0.080116   -0.000181
  15 H :    0.046712    0.008120
  16 H :    0.059143    0.007485
  17 H :    0.065112    0.003032
  18 H :    0.052838    0.000667
  19 H :    0.049147    0.002024
  20 H :    0.076173   -0.000146

  Mayer bond orders larger than 0.100000
B(  0-N ,  1-C ) :   0.9253 B(  0-N ,  2-C ) :   1.3666 B(  0-N , 10-C ) :   1.3762
B(  1-C , 11-H ) :   0.9321 B(  1-C , 12-H ) :   0.9518 B(  1-C , 13-H ) :   0.9512
B(  2-C ,  3-C ) :   1.4214 B(  2-C , 10-C ) :   0.1101 B(  2-C , 14-H ) :   0.9288
B(  3-C ,  4-O ) :   1.1239 B(  3-C ,  6-C ) :   1.3563 B(  3-C ,  8-C ) :   0.1073
B(  4-O ,  5-H ) :   0.8926 B(  6-C ,  7-C ) :   0.9935 B(  6-C ,  8-C ) :   1.4522
B(  6-C , 10-C ) :   0.1151 B(  7-C , 15-H ) :   0.9530 B(  7-C , 16-H ) :   0.9596
B(  8-C ,  9-C ) :   0.8921 B(  8-C , 10-C ) :   1.4451 B(  9-C , 17-H ) :   0.9359
B(  9-C , 18-H ) :   0.9715 B(  9-C , 19-H ) :   0.9537 B( 10-C , 20-H ) :   0.9233

FINAL SINGLE POINT ENERGY      -440.953342785893

DIPOLE MOMENT
-------------
                                X             Y             Z
Electronic contribution:      0.76336       5.20172       0.47247
Nuclear contribution   :     -2.06887      -5.56561      -0.06859
                        -----------------------------------------
Total Dipole Moment    :     -1.30551      -0.36389       0.40388
                        -----------------------------------------
Magnitude (a.u.)       :      1.41418
Magnitude (Debye)      :      3.59456

Rotational constants in cm-1:     0.059927     0.044341     0.025835
Rotational constants in MHz :  1796.555841  1329.317795   774.502662

CHEMICAL SHIELDING SUMMARY (ppm)  --  Orbital contribution
----------------------------------------------------------

  Nucleus  Element    Isotropic     Anisotropy
  -------  -------  ------------   ------------
      0       N           64.006        237.766
     11       H           27.632          8.381
     12       H           28.034          7.507
     13       H           28.064          7.660
     14       H           24.289          7.545
     15       H           24.942          7.569
     16       H           24.762          6.525
     20       H           24.229          8.889

                             ****ORCA TERMINATED NORMALLY****
TOTAL RUN TIME: 0 days 0 hours 3 minutes 17 seconds 925 msec
