                         Program Version 5.0.4 -  RELEASE  -
|  1> ! M062X def2-TZVP OPT FREQ
|  2> %pal nprocs 16 end
|  3> *XYZFile 1 2 opt_EPRII.xyz
|  4>
|  5>                          ****END OF INPUT****
 Total Charge           Charge          ....    1
 Multiplicity           Mult            ....    2
 Number of Electrons    NEL             ....   73
FINAL SINGLE POINT ENERGY      -441.114397490215
FINAL SINGLE POINT ENERGY      -441.130150500355
FINAL SINGLE POINT ENERGY      -441.139435034866
FINAL SINGLE POINT ENERGY      -441.144030373364
FINAL SINGLE POINT ENERGY      -441.145964676955
FINAL SINGLE POINT ENERGY      -441.146572999250
FINAL SINGLE POINT ENERGY      -441.147064918397
FINAL SINGLE POINT ENERGY      -441.147450186733
FINAL SINGLE POINT ENERGY      -441.147823796376
FINAL SINGLE POINT ENERGY      -441.148305889040
FINAL SINGLE POINT ENERGY      -441.151911314053
FINAL SINGLE POINT ENERGY      -441.151913789157
FINAL SINGLE POINT ENERGY      -441.151967583903
FINAL SINGLE POINT ENERGY      -441.151981692282
FINAL SINGLE POINT ENERGY      -441.151992499016
FINAL SINGLE POINT ENERGY      -441.152000709975
FINAL SINGLE POINT ENERGY      -441.152004302753
FINAL SINGLE POINT ENERGY      -441.152005794873
FINAL SINGLE POINT ENERGY      -441.152006624289
                    ***********************HURRAY********************

CARTESIAN COORDINATES (ANGSTROEM)
---------------------------------
  N     -1.681801   -0.025505    0.023498
  C     -3.151609   -0.076293   -0.011995
  C     -1.058474    1.158426    0.063350
  C      0.320266    1.231538    0.056139
  O      0.826195    2.460950    0.106284
  H      1.789285    2.474515    0.087617
  C      1.101932    0.037272    0.003096
  C      2.489687    0.071988    0.001167
  C      0.385010   -1.203421   -0.043829
  C      1.111855   -2.510232   -0.101573
  C     -0.981895   -1.184446   -0.030908
  H     -3.479724   -0.217298   -1.040842
  H     -3.489803   -0.906278    0.602479
  H     -3.549131    0.854888    0.379612
  H     -1.661731    2.053812    0.099079
  H      3.069536   -0.837079   -0.032697
  H      3.059184    0.989606    0.035072
  H      1.752894   -2.634840    0.772862
  H      0.414618   -3.343878   -0.133298
  H      1.743788   -2.560940   -0.990034
  H     -1.572281   -2.088986   -0.061478

 Multiplicity           Mult            ....    2
 Number of Electrons    NEL             ....   73
 Basis Dimension        Dim             ....  376

ORBITAL ENERGIES
----------------
                 SPIN UP ORBITALS
  NO   OCC          E(Eh)            E(eV)
   0   1.0000     -19.831287      -539.6368
   1   1.0000     -15.018150      -408.6646
   2   1.0000     -10.798123      -293.8319
   3   1.0000     -10.764424      -292.9149
   4   1.0000     -10.756912      -292.7105
   5   1.0000     -10.742594      -292.3208
   6   1.0000     -10.740680      -292.2688
   7   1.0000     -10.737934      -292.1940
   8   1.0000     -10.731552      -292.0204
   9   1.0000     -10.683860      -290.7226
  10   1.0000      -1.374241       -37.3950
  11   1.0000      -1.301816       -35.4242
  12   1.0000      -1.124408       -30.5967
  13   1.0000      -1.064773       -28.9740
  14   1.0000      -1.027510       -27.9600
  15   1.0000      -0.980585       -26.6831
  16   1.0000      -0.949392       -25.8343
  17   1.0000      -0.894389       -24.3376
  18   1.0000      -0.861076       -23.4311
  19   1.0000      -0.807007       -21.9598
  20   1.0000      -0.786344       -21.3975
  21   1.0000      -0.761864       -20.7314
  22   1.0000      -0.735851       -20.0235
  23   1.0000      -0.709547       -19.3078
  24   1.0000      -0.683604       -18.6018
  25   1.0000      -0.678334       -18.4584
  26   1.0000      -0.663991       -18.0681
  27   1.0000      -0.659863       -17.9558
  28   1.0000      -0.645808       -17.5733
  29   1.0000      -0.635894       -17.3036
  30   1.0000      -0.627443       -17.0736
  31   1.0000      -0.605195       -16.4682
  32   1.0000      -0.594333       -16.1726
  33   1.0000      -0.584434       -15.9032
  34   1.0000      -0.550928       -14.9915
  35   1.0000      -0.482627       -13.1329
  36   1.0000      -0.419044       -11.4028
  37   0.0000      -0.166880        -4.5410
  38   0.0000      -0.147769        -4.0210
  39   0.0000      -0.082631        -2.2485
  40   0.0000      -0.072199        -1.9646
  41   0.0000      -0.047209        -1.2846

                 SPIN DOWN ORBITALS
  NO   OCC          E(Eh)            E(eV)
   0   1.0000     -19.830101      -539.6045
   1   1.0000     -15.015023      -408.5796
   2   1.0000     -10.796872      -293.7978
   3   1.0000     -10.764594      -292.9195
   4   1.0000     -10.757654      -292.7306
   5   1.0000     -10.742720      -292.3243
   6   1.0000     -10.742083      -292.3069
   7   1.0000     -10.736769      -292.1623
   8   1.0000     -10.727648      -291.9141
   9   1.0000     -10.683987      -290.7261
  10   1.0000      -1.370331       -37.2886
  11   1.0000      -1.293772       -35.2053
  12   1.0000      -1.119247       -30.4563
  13   1.0000      -1.061192       -28.8765
  14   1.0000      -1.017601       -27.6903
  15   1.0000      -0.977610       -26.6021
  16   1.0000      -0.941975       -25.6325
  17   1.0000      -0.888033       -24.1646
  18   1.0000      -0.855259       -23.2728
  19   1.0000      -0.803756       -21.8713
  20   1.0000      -0.782671       -21.2976
  21   1.0000      -0.759418       -20.6648
  22   1.0000      -0.722558       -19.6618
  23   1.0000      -0.703761       -19.1503
  24   1.0000      -0.681165       -18.5354
  25   1.0000      -0.666593       -18.1389
  26   1.0000      -0.659003       -17.9324
  27   1.0000      -0.658244       -17.9117
  28   1.0000      -0.639949       -17.4139
  29   1.0000      -0.634430       -17.2637
  30   1.0000      -0.623192       -16.9579
  31   1.0000      -0.595283       -16.1985
  32   1.0000      -0.593144       -16.1403
  33   1.0000      -0.582578       -15.8527
  34   1.0000      -0.524109       -14.2617
  35   1.0000      -0.467417       -12.7191
  36   0.0000      -0.255692        -6.9577
  37   0.0000      -0.140020        -3.8102
  38   0.0000      -0.132426        -3.6035
  39   0.0000      -0.082770        -2.2523
  40   0.0000      -0.072331        -1.9682

MULLIKEN ATOMIC CHARGES AND SPIN POPULATIONS
--------------------------------------------
   0 N :   -0.001334    0.198180
   1 C :   -0.320591   -0.012491
   2 C :   -0.029673   -0.016817
   3 C :    0.136135    0.206647
   4 O :   -0.356643    0.043092
   5 H :    0.345810   -0.000857
   6 C :    0.140169   -0.168650
   7 C :   -0.283962    0.654443
   8 C :    0.011830    0.200246
   9 C :   -0.522542    0.000404
  10 C :   -0.018296   -0.098356
  11 H :    0.209617    0.013065
  12 H :    0.186927    0.005159
  13 H :    0.179502    0.001810
  14 H :    0.215283    0.000122
  15 H :    0.201258   -0.020776
  16 H :    0.148098   -0.021403
  17 H :    0.198109    0.006331
  18 H :    0.162313    0.000657
  19 H :    0.198271    0.006060
  20 H :    0.199716    0.003135
Sum of atomic charges         :    1.0000000

LOEWDIN ATOMIC CHARGES AND SPIN POPULATIONS
-------------------------------------------
   0 N :    0.278879    0.143082
   1 C :   -0.205791    0.009786
   2 C :   -0.087461    0.038145
   3 C :   -0.221879    0.120554
   4 O :    0.164062    0.043337
   5 H :    0.205698    0.000850
   6 C :   -0.134577   -0.003062
   7 C :   -0.028025    0.543341
   8 C :   -0.109594    0.103617
   9 C :   -0.228008    0.007238
  10 C :   -0.104744   -0.024351
  11 H :    0.142491    0.007239
  12 H :    0.139716    0.002828
  13 H :    0.138696    0.000953
  14 H :    0.171365   -0.000376
  15 H :    0.145153   -0.000895
  16 H :    0.130276   -0.000914
  17 H :    0.147315    0.004521
  18 H :    0.142325   -0.000104
  19 H :    0.147416    0.004379
  20 H :    0.166685   -0.000168

  Mayer bond orders larger than 0.100000
B(  0-N ,  1-C ) :   0.8863 B(  0-N ,  2-C ) :   1.2946 B(  0-N , 10-C ) :   1.2182
B(  1-C , 11-H ) :   0.9438 B(  1-C , 12-H ) :   0.9492 B(  1-C , 13-H ) :   0.9524
B(  2-C ,  3-C ) :   1.5145 B(  2-C , 14-H ) :   0.8825 B(  3-C ,  4-O ) :   1.2538
B(  3-C ,  6-C ) :   1.1799 B(  4-O ,  5-H ) :   0.8553 B(  6-C ,  7-C ) :   1.2785
B(  6-C ,  8-C ) :   1.1380 B(  7-C , 15-H ) :   0.9683 B(  7-C , 16-H ) :   0.9799
B(  8-C ,  9-C ) :   0.9174 B(  8-C , 10-C ) :   1.6096 B(  9-C , 17-H ) :   0.9599
B(  9-C , 18-H ) :   0.9652 B(  9-C , 19-H ) :   0.9601 B( 10-C , 20-H ) :   0.8874

FINAL SINGLE POINT ENERGY      -441.152007084502

DIPOLE MOMENT
-------------
                                X             Y             Z
Electronic contribution:      0.69593       5.62829       0.29605
Nuclear contribution   :     -1.07233      -6.02354      -0.33566
                        -----------------------------------------
Total Dipole Moment    :     -0.37639      -0.39525      -0.03961
                        -----------------------------------------
Magnitude (a.u.)       :      0.54723
Magnitude (Debye)      :      1.39095

VIBRATIONAL FREQUENCIES
-----------------------

Scaling factor for frequencies =  1.000000000  (already applied!)

   0:         0.00 cm**-1
   1:         0.00 cm**-1
   2:         0.00 cm**-1
   3:         0.00 cm**-1
   4:         0.00 cm**-1
   5:         0.00 cm**-1
   6:        52.61 cm**-1
   7:       119.87 cm**-1
   8:       182.39 cm**-1
   9:       191.56 cm**-1
  10:       215.03 cm**-1
  11:       251.37 cm**-1
  12:       306.30 cm**-1
  13:       337.05 cm**-1
  14:       348.59 cm**-1
  15:       379.67 cm**-1
  16:       430.72 cm**-1
  17:       454.89 cm**-1
  18:       540.87 cm**-1
  19:       552.56 cm**-1
  20:       577.95 cm**-1
  21:       598.28 cm**-1
  22:       607.03 cm**-1
  23:       737.51 cm**-1
  24:       819.19 cm**-1
  25:       841.32 cm**-1
  26:       909.53 cm**-1
  27:       918.66 cm**-1
  28:       928.06 cm**-1
  29:      1024.17 cm**-1
  30:      1036.48 cm**-1
  31:      1061.29 cm**-1
  32:      1121.50 cm**-1
  33:      1153.41 cm**-1
  34:      1154.60 cm**-1
  35:      1170.97 cm**-1
  36:      1215.66 cm**-1
  37:      1289.54 cm**-1
  38:      1326.12 cm**-1
  39:      1358.08 cm**-1
  40:      1397.25 cm**-1
  41:      1424.03 cm**-1
  42:      1443.53 cm**-1
  43:      1468.37 cm**-1
  44:      1480.50 cm**-1
  45:      1490.73 cm**-1
  46:      1500.58 cm**-1
  47:      1514.81 cm**-1
  48:      1532.18 cm**-1
  49:      1566.91 cm**-1
  50:      1588.63 cm**-1
  51:      1689.43 cm**-1
  52:      3075.94 cm**-1
  53:      3099.89 cm**-1
  54:      3142.62 cm**-1
  55:      3182.14 cm**-1
  56:      3189.28 cm**-1
  57:      3203.09 cm**-1
  58:      3215.06 cm**-1
  59:      3253.48 cm**-1
  60:      3261.74 cm**-1
  61:      3299.60 cm**-1
  62:      3865.44 cm**-1

IR SPECTRUM
-----------

 Mode   freq       eps      Int      T**2         TX        TY        TZ
       cm**-1   L/(mol*cm) km/mol    a.u.
----------------------------------------------------------------------------
  6:     52.61   0.000865    4.37  0.005129  ( 0.003092 -0.001289  0.071537)
  7:    119.87   0.000019    0.10  0.000049  ( 0.005034 -0.001088  0.004762)
  8:    182.39   0.001333    6.74  0.002282  (-0.001690 -0.001401  0.047715)
  9:    191.56   0.011573   58.49  0.018854  ( 0.002976 -0.004992  0.137185)
 10:    215.03   0.000044    0.22  0.000064  ( 0.000625  0.000101 -0.007947)
 11:    251.37   0.002014   10.18  0.002500  ( 0.000182 -0.000771  0.049998)
 12:    306.30   0.000088    0.45  0.000090  (-0.001829  0.009302  0.000133)
 13:    337.05   0.001280    6.47  0.001186  ( 0.016977  0.029951 -0.000552)
 14:    348.59   0.004632   23.41  0.004147  ( 0.003685 -0.001394  0.064277)
 15:    379.67   0.000261    1.32  0.000215  (-0.010658 -0.010031  0.000720)
 16:    430.72   0.002018   10.20  0.001462  (-0.001649  0.001854 -0.038154)
 17:    454.89   0.000453    2.29  0.000311  (-0.013167  0.011043  0.003912)
 18:    540.87   0.001524    7.70  0.000879  (-0.005706 -0.029095  0.000043)
 19:    552.56   0.001597    8.07  0.000902  (-0.003180 -0.002663  0.029745)
 20:    577.95   0.001030    5.21  0.000556  ( 0.012488  0.019701  0.003472)
 21:    598.28   0.000302    1.53  0.000158  (-0.006257 -0.010765  0.001594)
 22:    607.03   0.000245    1.24  0.000126  (-0.001170 -0.003549 -0.010578)
 23:    737.51   0.000008    0.04  0.000003  ( 0.001165 -0.000217  0.001408)
 24:    819.19   0.001016    5.14  0.000387  ( 0.009962 -0.016966 -0.000298)
 25:    841.32   0.006776   34.24  0.002513  ( 0.000504  0.003286 -0.050024)
 26:    909.53   0.002312   11.68  0.000793  (-0.001160  0.000973 -0.028123)
 27:    918.66   0.003775   19.08  0.001282  ( 0.001239 -0.001940  0.035734)
 28:    928.06   0.000200    1.01  0.000067  ( 0.001514  0.007600  0.002705)
 29:   1024.17   0.000047    0.24  0.000014  ( 0.003475  0.000875  0.001265)
 30:   1036.48   0.004417   22.32  0.001330  ( 0.003161 -0.036281 -0.001882)
 31:   1061.29   0.000428    2.16  0.000126  (-0.000468  0.001139 -0.011152)
 32:   1121.50   0.000923    4.67  0.000257  ( 0.011488 -0.011174  0.000247)
 33:   1153.41   0.002532   12.79  0.000685  (-0.022168 -0.013457 -0.003525)
 34:   1154.60   0.000211    1.06  0.000057  ( 0.001264  0.007322 -0.001308)
 35:   1170.97   0.040580  205.07  0.010815  ( 0.037378  0.096984  0.003399)
 36:   1215.66   0.010338   52.24  0.002654  ( 0.034616 -0.038050 -0.002782)
 37:   1289.54   0.007372   37.25  0.001784  (-0.009812  0.041031  0.002051)
 38:   1326.12   0.001851    9.36  0.000436  (-0.006982 -0.019662 -0.000603)
 39:   1358.08   0.008145   41.16  0.001872  ( 0.001343  0.043223  0.001215)
 40:   1397.25   0.026877  135.82  0.006003  ( 0.066523  0.039716  0.000394)
 41:   1424.03   0.002728   13.79  0.000598  ( 0.023753  0.005788  0.000341)
 42:   1443.53   0.002891   14.61  0.000625  ( 0.007744 -0.023670 -0.002184)
 43:   1468.37   0.000287    1.45  0.000061  ( 0.006057 -0.001781  0.004601)
 44:   1480.50   0.002921   14.76  0.000616  ( 0.000021  0.002021 -0.024731)
 45:   1490.73   0.001523    7.70  0.000319  (-0.000629  0.008483 -0.015700)
 46:   1500.58   0.001410    7.13  0.000293  (-0.003624 -0.005762  0.015712)
 47:   1514.81   0.004549   22.99  0.000937  (-0.007337 -0.028510 -0.008400)
 48:   1532.18   0.023398  118.24  0.004765  ( 0.022163  0.065300  0.003185)
 49:   1566.91   0.024710  124.87  0.004921  ( 0.004678 -0.069933 -0.002951)
 50:   1588.63   0.006385   32.27  0.001254  (-0.003691 -0.035195 -0.001400)
 51:   1689.43   0.006050   30.57  0.001117  (-0.027163  0.019453  0.001114)
 52:   3075.94   0.000009    0.05  0.000001  (-0.000304  0.000929 -0.000043)
 53:   3099.89   0.000126    0.64  0.000013  (-0.003514  0.000356  0.000456)
 54:   3142.62   0.000015    0.08  0.000002  (-0.000079  0.000056 -0.001226)
 55:   3182.14   0.000305    1.54  0.000030  (-0.000629 -0.005426 -0.000339)
 56:   3189.28   0.000119    0.60  0.000012  ( 0.002366 -0.000142  0.002457)
 57:   3203.09   0.001188    6.00  0.000116  ( 0.010086 -0.003744 -0.000099)
 58:   3215.06   0.000043    0.22  0.000004  (-0.001798 -0.000956  0.000047)
 59:   3253.48   0.001097    5.54  0.000105  (-0.004506 -0.009213 -0.000232)
 60:   3261.74   0.003174   16.04  0.000304  ( 0.013435 -0.011090 -0.000388)
 61:   3299.60   0.000233    1.18  0.000022  ( 0.004180 -0.002126  0.000021)
 62:   3865.44   0.024268  122.64  0.001959  ( 0.036046  0.025686  0.000336)

--------------------------
THERMOCHEMISTRY AT 298.15K
--------------------------

Temperature         ... 298.15 K
Pressure            ... 1.00 atm
Total Mass          ... 137.18 AMU

Throughout the following assumptions are being made:
  (1) The electronic state is orbitally nondegenerate
      but the spin degeneracy is treated
  (2) There are no thermally accessible electronically excited states
  (3) Hindered rotations indicated by low frequency modes are not
      treated as such but are treated as vibrations and this may
      cause some error
  (4) All equations used are the standard statistical mechanics
      equations for an ideal gas
  (5) All vibrations are strictly harmonic

freq.      52.61  E(vib)   ...       0.52
freq.     119.87  E(vib)   ...       0.44
freq.     182.39  E(vib)   ...       0.37
freq.     191.56  E(vib)   ...       0.36
freq.     215.03  E(vib)   ...       0.34
freq.     251.37  E(vib)   ...       0.30
freq.     306.30  E(vib)   ...       0.26
freq.     337.05  E(vib)   ...       0.24
freq.     348.59  E(vib)   ...       0.23
freq.     379.67  E(vib)   ...       0.21
freq.     430.72  E(vib)   ...       0.18
freq.     454.89  E(vib)   ...       0.16
freq.     540.87  E(vib)   ...       0.12
freq.     552.56  E(vib)   ...       0.12
freq.     577.95  E(vib)   ...       0.11
freq.     598.28  E(vib)   ...       0.10
freq.     607.03  E(vib)   ...       0.10
freq.     737.51  E(vib)   ...       0.06
freq.     819.19  E(vib)   ...       0.05
freq.     841.32  E(vib)   ...       0.04
freq.     909.53  E(vib)   ...       0.03
freq.     918.66  E(vib)   ...       0.03
freq.     928.06  E(vib)   ...       0.03
freq.    1024.17  E(vib)   ...       0.02
freq.    1036.48  E(vib)   ...       0.02
freq.    1061.29  E(vib)   ...       0.02
freq.    1121.50  E(vib)   ...       0.01
freq.    1153.41  E(vib)   ...       0.01
freq.    1154.60  E(vib)   ...       0.01
freq.    1170.97  E(vib)   ...       0.01
freq.    1215.66  E(vib)   ...       0.01
freq.    1289.54  E(vib)   ...       0.01
freq.    1326.12  E(vib)   ...       0.01
freq.    1358.08  E(vib)   ...       0.01
freq.    1397.25  E(vib)   ...       0.00
freq.    1424.03  E(vib)   ...       0.00
freq.    1443.53  E(vib)   ...       0.00
freq.    1468.37  E(vib)   ...       0.00
freq.    1480.50  E(vib)   ...       0.00
freq.    1490.73  E(vib)   ...       0.00
freq.    1500.58  E(vib)   ...       0.00
freq.    1514.81  E(vib)   ...       0.00
freq.    1532.18  E(vib)   ...       0.00
freq.    1566.91  E(vib)   ...       0.00
freq.    1588.63  E(vib)   ...       0.00
freq.    1689.43  E(vib)   ...       0.00
freq.    3075.94  E(vib)   ...       0.00
freq.    3099.89  E(vib)   ...       0.00
freq.    3142.62  E(vib)   ...       0.00
freq.    3182.14  E(vib)   ...       0.00
freq.    3189.28  E(vib)   ...       0.00
freq.    3203.09  E(vib)   ...       0.00
freq.    3215.06  E(vib)   ...       0.00
freq.    3253.48  E(vib)   ...       0.00
freq.    3261.74  E(vib)   ...       0.00
freq.    3299.60  E(vib)   ...       0.00
freq.    3865.44  E(vib)   ...       0.00

------------
INNER ENERGY
------------

The inner energy is: U= E(el) + E(ZPE) + E(vib) + E(rot) + E(trans)
    E(el)   - is the total energy from the electronic structure calculation
              = E(kin-el) + E(nuc-el) + E(el-el) + E(nuc-nuc)
    E(ZPE)  - the the zero temperature vibrational energy from the frequency calculation
    E(vib)  - the the finite temperature correction to E(ZPE) due to population
              of excited vibrational states
    E(rot)  - is the rotational thermal energy
    E(trans)- is the translational thermal energy

Summary of contributions to the inner energy U:
Electronic energy                ...   -441.15200708 Eh
Zero point energy                ...      0.17792031 Eh     111.65 kcal/mol
Thermal vibrational correction   ...      0.00727859 Eh       4.57 kcal/mol
Thermal rotational correction    ...      0.00141627 Eh       0.89 kcal/mol
Thermal translational correction ...      0.00141627 Eh       0.89 kcal/mol
-----------------------------------------------------------------------
Total thermal energy                   -440.96397564 Eh

Summary of corrections to the electronic energy:
(perhaps to be used in another calculation)
Total thermal correction                  0.01011113 Eh       6.34 kcal/mol
Non-thermal (ZPE) correction              0.17792031 Eh     111.65 kcal/mol
-----------------------------------------------------------------------
Total correction                          0.18803144 Eh     117.99 kcal/mol

--------
ENTHALPY
--------

The enthalpy is H = U + kB*T
                kB is Boltzmann's constant
Total free energy                 ...   -440.96397564 Eh
Thermal Enthalpy correction       ...      0.00094421 Eh       0.59 kcal/mol
-----------------------------------------------------------------------
Total Enthalpy                    ...   -440.96303143 Eh

Note: Only C1 symmetry has been detected, increase convergence thresholds
      if your molecule has a higher symmetry. Symmetry factor of 1.0 is
      used for the rotational entropy correction.

Note: Rotational entropy computed according to Herzberg
Infrared and Raman Spectra, Chapter V,1, Van Nostrand Reinhold, 1945
Point Group:  C1, Symmetry Number:   1
Rotational constants in cm-1:     0.058552     0.044925     0.025667

Vibrational entropy computed according to the QRRHO of S. Grimme
Chem.Eur.J. 2012 18 9955

-------
ENTROPY
-------

The entropy contributions are T*S = T*(S(el)+S(vib)+S(rot)+S(trans))
     S(el)   - electronic entropy
     S(vib)  - vibrational entropy
     S(rot)  - rotational entropy
     S(trans)- translational entropy
The entropies will be listed as multiplied by the temperature to get
units of energy

Electronic entropy                ...      0.00065446 Eh      0.41 kcal/mol
Vibrational entropy               ...      0.01210072 Eh      7.59 kcal/mol
Rotational entropy                ...      0.01404435 Eh      8.81 kcal/mol
Translational entropy             ...      0.01931898 Eh     12.12 kcal/mol
-----------------------------------------------------------------------
Final entropy term                ...      0.04611851 Eh     28.94 kcal/mol

In case the symmetry of your molecule has not been determined correctly
or in case you have a reason to use a different symmetry number we print
out the resulting rotational entropy values for sn=1,12 :
 --------------------------------------------------------
|  sn= 1 | S(rot)=       0.01404435 Eh      8.81 kcal/mol|
|  sn= 2 | S(rot)=       0.01338990 Eh      8.40 kcal/mol|
|  sn= 3 | S(rot)=       0.01300706 Eh      8.16 kcal/mol|
|  sn= 4 | S(rot)=       0.01273544 Eh      7.99 kcal/mol|
|  sn= 5 | S(rot)=       0.01252475 Eh      7.86 kcal/mol|

                             ****ORCA TERMINATED NORMALLY****
TOTAL RUN TIME: 0 days 0 hours 40 minutes 57 seconds 829 msec
