                         Program Version 5.0.4 -  RELEASE  -
|  1> ! M062X def2-TZVP OPT FREQ
|  2> %pal nprocs 16 end
|  3> *XYZFile 0 1 opt_EPRII.xyz
|  4>
|  5>                          ****END OF INPUT****
 Total Charge           Charge          ....    0
 Multiplicity           Mult            ....    1
 Number of Electrons    NEL             ....   74
FINAL SINGLE POINT ENERGY      -441.395909337463
FINAL SINGLE POINT ENERGY      -441.400552863948
FINAL SINGLE POINT ENERGY      -441.401228743897
FINAL SINGLE POINT ENERGY      -441.401318570419
FINAL SINGLE POINT ENERGY      -441.401331157848
FINAL SINGLE POINT ENERGY      -441.401333127434
FINAL SINGLE POINT ENERGY      -441.401335365832
                    ***********************HURRAY********************

CARTESIAN COORDINATES (ANGSTROEM)
---------------------------------
  N     -1.642149   -0.018058   -0.018070
  C     -3.107460   -0.048009   -0.038860
  C     -1.007233    1.156131   -0.008360
  C      0.424153    1.262541    0.005194
  O      0.989239    2.363941    0.012476
  C      1.112932   -0.014839    0.011163
  C      2.608466    0.006902    0.030345
  C      0.403548   -1.201950   -0.000338
  C      1.114209   -2.526878    0.006247
  C     -0.988393   -1.190057   -0.015524
  H     -3.445990   -0.519859   -0.959115
  H     -3.466827   -0.614406    0.817634
  H     -3.484888    0.967794    0.011419
  H     -1.612698    2.050226   -0.011218
  H      3.001843   -0.530426    0.896878
  H      3.023020   -0.472427   -0.860322
  H      2.947855    1.039272    0.066059
  H      1.737624   -2.626684    0.896522
  H      0.409824   -3.357321   -0.012385
  H      1.773179   -2.617115   -0.859045
  H     -1.593755   -2.083778   -0.024199

 Multiplicity           Mult            ....    1
 Number of Electrons    NEL             ....   74
 Basis Dimension        Dim             ....  376

ORBITAL ENERGIES
----------------

  NO   OCC          E(Eh)            E(eV)
   0   2.0000     -19.541731      -531.7575
   1   2.0000     -14.855470      -404.2379
   2   2.0000     -10.608136      -288.6621
   3   2.0000     -10.584575      -288.0209
   4   2.0000     -10.581714      -287.9431
   5   2.0000     -10.577695      -287.8337
   6   2.0000     -10.560151      -287.3563
   7   2.0000     -10.542095      -286.8650
   8   2.0000     -10.541922      -286.8603
   9   2.0000     -10.516511      -286.1688
  10   2.0000      -1.137143       -30.9432
  11   2.0000      -1.094618       -29.7861
  12   2.0000      -0.939604       -25.5679
  13   2.0000      -0.870288       -23.6817
  14   2.0000      -0.853260       -23.2184
  15   2.0000      -0.817567       -22.2471
  16   2.0000      -0.769139       -20.9293
  17   2.0000      -0.688780       -18.7427
  18   2.0000      -0.684701       -18.6317
  19   2.0000      -0.610021       -16.5995
  20   2.0000      -0.600828       -16.3494
  21   2.0000      -0.577107       -15.7039
  22   2.0000      -0.534421       -14.5423
  23   2.0000      -0.516865       -14.0646
  24   2.0000      -0.510968       -13.9041
  25   2.0000      -0.499876       -13.6023
  26   2.0000      -0.482525       -13.1302
  27   2.0000      -0.469860       -12.7855
  28   2.0000      -0.466170       -12.6851
  29   2.0000      -0.459369       -12.5001
  30   2.0000      -0.453117       -12.3299
  31   2.0000      -0.415305       -11.3010
  32   2.0000      -0.412586       -11.2270
  33   2.0000      -0.407533       -11.0895
  34   2.0000      -0.328982        -8.9521
  35   2.0000      -0.287198        -7.8151
  36   2.0000      -0.237713        -6.4685
  37   0.0000      -0.016508        -0.4492
  38   0.0000       0.039049         1.0626
  39   0.0000       0.051097         1.3904
  40   0.0000       0.069408         1.8887
  41   0.0000       0.088772         2.4156

MULLIKEN ATOMIC CHARGES
-----------------------
   0 N :    0.016240
   1 C :   -0.331105
   2 C :   -0.117559
   3 C :    0.141651
   4 O :   -0.458800
   5 C :    0.017797
   6 C :   -0.507550
   7 C :    0.050506
   8 C :   -0.486872
   9 C :   -0.098155
  10 H :    0.176426
  11 H :    0.173272
  12 H :    0.157505
  13 H :    0.159030
  14 H :    0.146457
  15 H :    0.150487
  16 H :    0.185913
  17 H :    0.165087
  18 H :    0.130714
  19 H :    0.163618
  20 H :    0.165338
Sum of atomic charges:   -0.0000000

LOEWDIN ATOMIC CHARGES
----------------------
   0 N :    0.257754
   1 C :   -0.230279
   2 C :   -0.135668
   3 C :   -0.392459
   4 O :   -0.006587
   5 C :   -0.109495
   6 C :   -0.253989
   7 C :   -0.171591
   8 C :   -0.247164
   9 C :   -0.187899
  10 H :    0.128936
  11 H :    0.128669
  12 H :    0.129194
  13 H :    0.146288
  14 H :    0.130115
  15 H :    0.131025
  16 H :    0.142731
  17 H :    0.134165
  18 H :    0.126260
  19 H :    0.134222
  20 H :    0.145771

  Mayer bond orders larger than 0.100000
B(  0-N ,  1-C ) :   0.9019 B(  0-N ,  2-C ) :   1.2993 B(  0-N ,  9-C ) :   1.2718
B(  1-C , 10-H ) :   0.9593 B(  1-C , 11-H ) :   0.9604 B(  1-C , 12-H ) :   0.9657
B(  2-C ,  3-C ) :   1.3304 B(  2-C , 13-H ) :   0.8899 B(  3-C ,  4-O ) :   1.8814
B(  3-C ,  5-C ) :   1.1191 B(  5-C ,  6-C ) :   0.9114 B(  5-C ,  7-C ) :   1.3769
B(  6-C , 14-H ) :   0.9725 B(  6-C , 15-H ) :   0.9733 B(  6-C , 16-H ) :   0.9609
B(  7-C ,  8-C ) :   0.8952 B(  7-C ,  9-C ) :   1.4266 B(  8-C , 17-H ) :   0.9755
B(  8-C , 18-H ) :   0.9812 B(  8-C , 19-H ) :   0.9736 B(  9-C , 20-H ) :   0.9137

FINAL SINGLE POINT ENERGY      -441.401336710437

DIPOLE MOMENT
-------------
                                X             Y             Z
Electronic contribution:     -1.34045       6.03485      -0.00582
Nuclear contribution   :     -0.57366      -8.03957      -0.01928
                        -----------------------------------------
Total Dipole Moment    :     -1.91411      -2.00472      -0.02509
                        -----------------------------------------
Magnitude (a.u.)       :      2.77189
Magnitude (Debye)      :      7.04557

VIBRATIONAL FREQUENCIES
-----------------------

Scaling factor for frequencies =  1.000000000  (already applied!)

   0:         0.00 cm**-1
   1:         0.00 cm**-1
   2:         0.00 cm**-1
   3:         0.00 cm**-1
   4:         0.00 cm**-1
   5:         0.00 cm**-1
   6:       -93.66 cm**-1 ***imaginary mode***
   7:       -75.49 cm**-1 ***imaginary mode***
   8:       105.67 cm**-1
   9:       142.05 cm**-1
  10:       184.67 cm**-1
  11:       220.70 cm**-1
  12:       297.31 cm**-1
  13:       313.97 cm**-1
  14:       325.08 cm**-1
  15:       352.68 cm**-1
  16:       453.95 cm**-1
  17:       537.97 cm**-1
  18:       544.73 cm**-1
  19:       591.35 cm**-1
  20:       620.61 cm**-1
  21:       621.55 cm**-1
  22:       733.25 cm**-1
  23:       777.05 cm**-1
  24:       778.67 cm**-1
  25:       860.77 cm**-1
  26:       949.91 cm**-1
  27:      1016.18 cm**-1
  28:      1032.77 cm**-1
  29:      1057.46 cm**-1
  30:      1064.23 cm**-1
  31:      1125.90 cm**-1
  32:      1151.32 cm**-1
  33:      1161.99 cm**-1
  34:      1183.99 cm**-1
  35:      1245.72 cm**-1
  36:      1294.52 cm**-1
  37:      1337.85 cm**-1
  38:      1397.37 cm**-1
  39:      1415.86 cm**-1
  40:      1438.29 cm**-1
  41:      1456.95 cm**-1
  42:      1476.44 cm**-1
  43:      1478.71 cm**-1
  44:      1487.66 cm**-1
  45:      1492.75 cm**-1
  46:      1502.45 cm**-1
  47:      1507.09 cm**-1
  48:      1540.00 cm**-1
  49:      1615.44 cm**-1
  50:      1634.14 cm**-1
  51:      1681.49 cm**-1
  52:      3058.04 cm**-1
  53:      3070.66 cm**-1
  54:      3100.68 cm**-1
  55:      3114.78 cm**-1
  56:      3135.28 cm**-1
  57:      3160.82 cm**-1
  58:      3179.73 cm**-1
  59:      3182.15 cm**-1
  60:      3213.20 cm**-1
  61:      3254.83 cm**-1
  62:      3260.28 cm**-1

IR SPECTRUM
-----------

 Mode   freq       eps      Int      T**2         TX        TY        TZ
       cm**-1   L/(mol*cm) km/mol    a.u.
----------------------------------------------------------------------------
  8:    105.67   0.001052    5.31  0.003105  (-0.000713 -0.000238  0.055721)
  9:    142.05   0.000026    0.13  0.000057  (-0.000163 -0.000672  0.007538)
 10:    184.67   0.000074    0.38  0.000126  ( 0.000568 -0.000329 -0.011187)
 11:    220.70   0.000194    0.98  0.000274  ( 0.000420 -0.000692 -0.016531)
 12:    297.31   0.000097    0.49  0.000102  (-0.002357 -0.009815  0.000125)
 13:    313.97   0.000711    3.59  0.000707  ( 0.005637 -0.025982  0.000176)
 14:    325.08   0.000048    0.24  0.000046  (-0.000610 -0.000521 -0.006706)
 15:    352.68   0.000833    4.21  0.000737  ( 0.026618 -0.005358  0.000140)
 16:    453.95   0.000992    5.01  0.000682  ( 0.005348 -0.025560 -0.000065)
 17:    537.97   0.000682    3.45  0.000396  (-0.013739 -0.014388 -0.000341)
 18:    544.73   0.000005    0.03  0.000003  (-0.000678 -0.000428 -0.001573)
 19:    591.35   0.000287    1.45  0.000151  (-0.006340 -0.010543  0.000153)
 20:    620.61   0.001093    5.52  0.000550  ( 0.012324  0.017798 -0.009000)
 21:    621.55   0.001148    5.80  0.000576  (-0.004294 -0.007271 -0.022476)
 22:    733.25   0.000174    0.88  0.000074  ( 0.000311 -0.000285  0.008600)
 23:    777.05   0.002412   12.19  0.000969  ( 0.000006  0.000162 -0.031122)
 24:    778.67   0.001983   10.02  0.000795  (-0.016366 -0.022934 -0.000861)
 25:    860.77   0.006914   34.94  0.002507  (-0.000456 -0.000121  0.050065)
 26:    949.91   0.000358    1.81  0.000118  ( 0.007367 -0.007960  0.000309)
 27:   1016.18   0.002469   12.48  0.000758  (-0.004719  0.027129 -0.000121)
 28:   1032.77   0.000179    0.90  0.000054  ( 0.001655 -0.000662 -0.007131)
 29:   1057.46   0.000266    1.35  0.000079  ( 0.008711 -0.001641  0.000208)
 30:   1064.23   0.000030    0.15  0.000009  ( 0.000558 -0.000335  0.002909)
 31:   1125.90   0.004154   20.99  0.001151  (-0.026623  0.021041  0.000093)
 32:   1151.32   0.000062    0.31  0.000017  ( 0.003721 -0.001492  0.000875)
 33:   1161.99   0.000690    3.48  0.000185  ( 0.013601  0.000191  0.000391)
 34:   1183.99   0.010281   51.96  0.002710  ( 0.038400  0.035144  0.000324)
 35:   1245.72   0.001789    9.04  0.000448  (-0.013588  0.016235 -0.000135)
 36:   1294.52   0.003057   15.45  0.000737  ( 0.022528 -0.015144  0.000158)
 37:   1337.85   0.005989   30.27  0.001397  (-0.019053  0.032156  0.000023)
 38:   1397.37   0.005765   29.13  0.001287  (-0.035291 -0.006461 -0.000481)
 39:   1415.86   0.000067    0.34  0.000015  ( 0.002476  0.002930 -0.000151)
 40:   1438.29   0.004713   23.82  0.001023  (-0.031042  0.007661 -0.000496)
 41:   1456.95   0.001398    7.07  0.000299  ( 0.012297  0.012160 -0.000616)
 42:   1476.44   0.001457    7.36  0.000308  ( 0.016693  0.004161  0.003453)
 43:   1478.71   0.000567    2.87  0.000120  (-0.000576  0.000093  0.010925)
 44:   1487.66   0.001723    8.71  0.000361  ( 0.015242 -0.009238  0.006609)
 45:   1492.75   0.001934    9.77  0.000404  ( 0.004635  0.000852 -0.019545)
 46:   1502.45   0.003640   18.39  0.000756  (-0.002721  0.002933  0.027203)
 47:   1507.09   0.004961   25.07  0.001027  ( 0.015767 -0.027902  0.000443)
 48:   1540.00   0.002028   10.25  0.000411  (-0.020158  0.002145  0.000288)
 49:   1615.44   0.004308   21.77  0.000832  ( 0.028824  0.001138  0.000387)
 50:   1634.14   0.003131   15.82  0.000598  (-0.011042 -0.021815 -0.000119)
 51:   1681.49   0.122350  618.31  0.022707  (-0.054469 -0.140497 -0.000681)
 52:   3058.04   0.003951   19.97  0.000403  ( 0.017299 -0.010184 -0.000430)
 53:   3070.66   0.002729   13.79  0.000277  ( 0.005885 -0.015579  0.000166)
 54:   3100.68   0.003133   15.83  0.000315  (-0.017652 -0.001817 -0.000668)
 55:   3114.78   0.002388   12.07  0.000239  ( 0.000460 -0.000742  0.015443)
 56:   3135.28   0.000858    4.33  0.000085  ( 0.000069 -0.000347 -0.009232)
 57:   3160.82   0.002238   11.31  0.000221  ( 0.010050  0.010951  0.000251)
 58:   3179.73   0.000314    1.59  0.000031  ( 0.005544 -0.000206  0.000016)
 59:   3182.15   0.000444    2.25  0.000044  ( 0.000459  0.000374 -0.006574)
 60:   3213.20   0.000210    1.06  0.000020  ( 0.002243 -0.003918 -0.000085)
 61:   3254.83   0.000390    1.97  0.000037  (-0.002371  0.005635 -0.000042)
 62:   3260.28   0.000080    0.41  0.000008  (-0.002380 -0.001419 -0.000050)

--------------------------
THERMOCHEMISTRY AT 298.15K
--------------------------

Temperature         ... 298.15 K
Pressure            ... 1.00 atm
Total Mass          ... 137.18 AMU

Throughout the following assumptions are being made:
  (1) The electronic state is orbitally nondegenerate
  (2) There are no thermally accessible electronically excited states
  (3) Hindered rotations indicated by low frequency modes are not
      treated as such but are treated as vibrations and this may
      cause some error
  (4) All equations used are the standard statistical mechanics
      equations for an ideal gas
  (5) All vibrations are strictly harmonic

freq.     105.67  E(vib)   ...       0.45
freq.     142.05  E(vib)   ...       0.41
freq.     184.67  E(vib)   ...       0.37
freq.     220.70  E(vib)   ...       0.33
freq.     297.31  E(vib)   ...       0.27
freq.     313.97  E(vib)   ...       0.25
freq.     325.08  E(vib)   ...       0.24
freq.     352.68  E(vib)   ...       0.22
freq.     453.95  E(vib)   ...       0.16
freq.     537.97  E(vib)   ...       0.12
freq.     544.73  E(vib)   ...       0.12
freq.     591.35  E(vib)   ...       0.10
freq.     620.61  E(vib)   ...       0.09
freq.     621.55  E(vib)   ...       0.09
freq.     733.25  E(vib)   ...       0.06
freq.     777.05  E(vib)   ...       0.05
freq.     778.67  E(vib)   ...       0.05
freq.     860.77  E(vib)   ...       0.04
freq.     949.91  E(vib)   ...       0.03
freq.    1016.18  E(vib)   ...       0.02
freq.    1032.77  E(vib)   ...       0.02
freq.    1057.46  E(vib)   ...       0.02
freq.    1064.23  E(vib)   ...       0.02
freq.    1125.90  E(vib)   ...       0.01
freq.    1151.32  E(vib)   ...       0.01
freq.    1161.99  E(vib)   ...       0.01
freq.    1183.99  E(vib)   ...       0.01
freq.    1245.72  E(vib)   ...       0.01
freq.    1294.52  E(vib)   ...       0.01
freq.    1337.85  E(vib)   ...       0.01
freq.    1397.37  E(vib)   ...       0.00
freq.    1415.86  E(vib)   ...       0.00
freq.    1438.29  E(vib)   ...       0.00
freq.    1456.95  E(vib)   ...       0.00
freq.    1476.44  E(vib)   ...       0.00
freq.    1478.71  E(vib)   ...       0.00
freq.    1487.66  E(vib)   ...       0.00
freq.    1492.75  E(vib)   ...       0.00
freq.    1502.45  E(vib)   ...       0.00
freq.    1507.09  E(vib)   ...       0.00
freq.    1540.00  E(vib)   ...       0.00
freq.    1615.44  E(vib)   ...       0.00
freq.    1634.14  E(vib)   ...       0.00
freq.    1681.49  E(vib)   ...       0.00
freq.    3058.04  E(vib)   ...       0.00
freq.    3070.66  E(vib)   ...       0.00
freq.    3100.68  E(vib)   ...       0.00
freq.    3114.78  E(vib)   ...       0.00
freq.    3135.28  E(vib)   ...       0.00
freq.    3160.82  E(vib)   ...       0.00
freq.    3179.73  E(vib)   ...       0.00
freq.    3182.15  E(vib)   ...       0.00
freq.    3213.20  E(vib)   ...       0.00
freq.    3254.83  E(vib)   ...       0.00
freq.    3260.28  E(vib)   ...       0.00

------------
INNER ENERGY
------------

The inner energy is: U= E(el) + E(ZPE) + E(vib) + E(rot) + E(trans)
    E(el)   - is the total energy from the electronic structure calculation
              = E(kin-el) + E(nuc-el) + E(el-el) + E(nuc-nuc)
    E(ZPE)  - the the zero temperature vibrational energy from the frequency calculation
    E(vib)  - the the finite temperature correction to E(ZPE) due to population
              of excited vibrational states
    E(rot)  - is the rotational thermal energy
    E(trans)- is the translational thermal energy

Summary of contributions to the inner energy U:
Electronic energy                ...   -441.40133671 Eh
Zero point energy                ...      0.17755802 Eh     111.42 kcal/mol
Thermal vibrational correction   ...      0.00587080 Eh       3.68 kcal/mol
Thermal rotational correction    ...      0.00141627 Eh       0.89 kcal/mol
Thermal translational correction ...      0.00141627 Eh       0.89 kcal/mol
-----------------------------------------------------------------------
Total thermal energy                   -441.21507535 Eh

Summary of corrections to the electronic energy:
(perhaps to be used in another calculation)
Total thermal correction                  0.00870334 Eh       5.46 kcal/mol
Non-thermal (ZPE) correction              0.17755802 Eh     111.42 kcal/mol
-----------------------------------------------------------------------
Total correction                          0.18626136 Eh     116.88 kcal/mol

--------
ENTHALPY
--------

The enthalpy is H = U + kB*T
                kB is Boltzmann's constant
Total free energy                 ...   -441.21507535 Eh
Thermal Enthalpy correction       ...      0.00094421 Eh       0.59 kcal/mol
-----------------------------------------------------------------------
Total Enthalpy                    ...   -441.21413114 Eh

Note: Only C1 symmetry has been detected, increase convergence thresholds
      if your molecule has a higher symmetry. Symmetry factor of 1.0 is
      used for the rotational entropy correction.

Note: Rotational entropy computed according to Herzberg
Infrared and Raman Spectra, Chapter V,1, Van Nostrand Reinhold, 1945
Point Group:  C1, Symmetry Number:   1
Rotational constants in cm-1:     0.060793     0.043362     0.025673

Vibrational entropy computed according to the QRRHO of S. Grimme
Chem.Eur.J. 2012 18 9955

-------
ENTROPY
-------

The entropy contributions are T*S = T*(S(el)+S(vib)+S(rot)+S(trans))
     S(el)   - electronic entropy
     S(vib)  - vibrational entropy
     S(rot)  - rotational entropy
     S(trans)- translational entropy
The entropies will be listed as multiplied by the temperature to get
units of energy

Electronic entropy                ...      0.00000000 Eh      0.00 kcal/mol
Vibrational entropy               ...      0.00962821 Eh      6.04 kcal/mol
Rotational entropy                ...      0.01404324 Eh      8.81 kcal/mol
Translational entropy             ...      0.01931898 Eh     12.12 kcal/mol
-----------------------------------------------------------------------
Final entropy term                ...      0.04299044 Eh     26.98 kcal/mol

In case the symmetry of your molecule has not been determined correctly
or in case you have a reason to use a different symmetry number we print
out the resulting rotational entropy values for sn=1,12 :
 --------------------------------------------------------
|  sn= 1 | S(rot)=       0.01404324 Eh      8.81 kcal/mol|
|  sn= 2 | S(rot)=       0.01338879 Eh      8.40 kcal/mol|
|  sn= 3 | S(rot)=       0.01300596 Eh      8.16 kcal/mol|
|  sn= 4 | S(rot)=       0.01273433 Eh      7.99 kcal/mol|
|  sn= 5 | S(rot)=       0.01252364 Eh      7.86 kcal/mol|
|  sn= 6 | S(rot)=       0.01235150 Eh      7.75 kcal/mol|
|  sn= 7 | S(rot)=       0.01220595 Eh      7.66 kcal/mol|
|  sn= 8 | S(rot)=       0.01207988 Eh      7.58 kcal/mol|

                             ****ORCA TERMINATED NORMALLY****
TOTAL RUN TIME: 0 days 0 hours 13 minutes 13 seconds 797 msec
