                         Program Version 5.0.4 -  RELEASE  -
|  1> ! M062X def2-TZVP OPT FREQ
|  2> %pal nprocs 16 end
|  3> *XYZFile 1 1 opt_EPRII.xyz
|  4>
|  5>                          ****END OF INPUT****
 Total Charge           Charge          ....    1
 Multiplicity           Mult            ....    1
 Number of Electrons    NEL             ....   74
FINAL SINGLE POINT ENERGY      -441.802600498853
FINAL SINGLE POINT ENERGY      -441.804613482679
FINAL SINGLE POINT ENERGY      -441.804648980127
FINAL SINGLE POINT ENERGY      -441.804654438754
FINAL SINGLE POINT ENERGY      -441.804656414477
                    ***********************HURRAY********************

CARTESIAN COORDINATES (ANGSTROEM)
---------------------------------
  N     -1.675049   -0.039732    0.024408
  C     -3.147615   -0.062680   -0.061350
  C     -1.049799    1.138889    0.110264
  C      0.332368    1.189386    0.145627
  O      0.868305    2.409874    0.241759
  H      1.832195    2.385962    0.263267
  C      1.083090    0.008081    0.085187
  C      2.576502    0.100955    0.126519
  C      0.395950   -1.206770   -0.004731
  C      1.109775   -2.525771   -0.068636
  C     -0.987743   -1.188914   -0.031218
  H     -3.442848    0.058792   -1.101773
  H     -3.508541   -1.012279    0.321081
  H     -3.547649    0.749736    0.537968
  H     -1.651100    2.035766    0.147217
  H      2.906748    0.557712    1.063923
  H      3.051520   -0.871441    0.047711
  H      2.946142    0.717039   -0.698058
  H      1.729432   -2.673994    0.816247
  H      0.402431   -3.349504   -0.129772
  H      1.758898   -2.571386   -0.943880
  H     -1.574612   -2.093721   -0.095358

 Multiplicity           Mult            ....    1
 Number of Electrons    NEL             ....   74
 Basis Dimension        Dim             ....  382

ORBITAL ENERGIES
----------------

  NO   OCC          E(Eh)            E(eV)
   0   2.0000     -19.821827      -539.3793
   1   2.0000     -15.022654      -408.7872
   2   2.0000     -10.788437      -293.5683
   3   2.0000     -10.765332      -292.9396
   4   2.0000     -10.763070      -292.8780
   5   2.0000     -10.745241      -292.3929
   6   2.0000     -10.740769      -292.2712
   7   2.0000     -10.735744      -292.1344
   8   2.0000     -10.694405      -291.0096
   9   2.0000     -10.683317      -290.7078
  10   2.0000      -1.363417       -37.1005
  11   2.0000      -1.304094       -35.4862
  12   2.0000      -1.120142       -30.4806
  13   2.0000      -1.062633       -28.9157
  14   2.0000      -1.019464       -27.7410
  15   2.0000      -0.981107       -26.6973
  16   2.0000      -0.949066       -25.8254
  17   2.0000      -0.896795       -24.4030
  18   2.0000      -0.861885       -23.4531
  19   2.0000      -0.800729       -21.7889
  20   2.0000      -0.782875       -21.3031
  21   2.0000      -0.760015       -20.6811
  22   2.0000      -0.733233       -19.9523
  23   2.0000      -0.695253       -18.9188
  24   2.0000      -0.679488       -18.4898
  25   2.0000      -0.678631       -18.4665
  26   2.0000      -0.657465       -17.8905
  27   2.0000      -0.643422       -17.5084
  28   2.0000      -0.641387       -17.4530
  29   2.0000      -0.633664       -17.2429
  30   2.0000      -0.628137       -17.0925
  31   2.0000      -0.604764       -16.4565
  32   2.0000      -0.602548       -16.3962
  33   2.0000      -0.590997       -16.0819
  34   2.0000      -0.577736       -15.7210
  35   2.0000      -0.497372       -13.5342
  36   2.0000      -0.467508       -12.7215
  37   0.0000      -0.192635        -5.2419
  38   0.0000      -0.147585        -4.0160
  39   0.0000      -0.082297        -2.2394
  40   0.0000      -0.073821        -2.0088
  41   0.0000      -0.044754        -1.2178

MULLIKEN ATOMIC CHARGES
-----------------------
   0 N :    0.004930
   1 C :   -0.316655
   2 C :   -0.023999
   3 C :    0.161629
   4 O :   -0.380478
   5 H :    0.361815
   6 C :    0.134345
   7 C :   -0.596167
   8 C :    0.029313
   9 C :   -0.520861
  10 C :   -0.017335
  11 H :    0.211167
  12 H :    0.180796
  13 H :    0.186105
  14 H :    0.218532
  15 H :    0.212905
  16 H :    0.186856
  17 H :    0.207179
  18 H :    0.199694
  19 H :    0.160997
  20 H :    0.199028
  21 H :    0.200203
Sum of atomic charges:    1.0000000

LOEWDIN ATOMIC CHARGES
----------------------
   0 N :    0.283455
   1 C :   -0.199936
   2 C :   -0.076747
   3 C :   -0.242680
   4 O :    0.148799
   5 H :    0.206889
   6 C :   -0.081722
   7 C :   -0.234078
   8 C :   -0.123777
   9 C :   -0.228379
  10 C :   -0.090717
  11 H :    0.142653
  12 H :    0.138618
  13 H :    0.139781
  14 H :    0.171778
  15 H :    0.150311
  16 H :    0.146320
  17 H :    0.149049
  18 H :    0.146829
  19 H :    0.140764
  20 H :    0.146962
  21 H :    0.165828

  Mayer bond orders larger than 0.100000
B(  0-N ,  1-C ) :   0.8794 B(  0-N ,  2-C ) :   1.2931 B(  0-N , 10-C ) :   1.2978
B(  1-C , 11-H ) :   0.9443 B(  1-C , 12-H ) :   0.9510 B(  1-C , 13-H ) :   0.9504
B(  2-C ,  3-C ) :   1.4897 B(  2-C , 14-H ) :   0.8828 B(  3-C ,  4-O ) :   1.2137
B(  3-C ,  6-C ) :   1.3116 B(  4-O ,  5-H ) :   0.8524 B(  6-C ,  7-C ) :   0.8830
B(  6-C ,  8-C ) :   1.3248 B(  7-C , 15-H ) :   0.9576 B(  7-C , 16-H ) :   0.9629
B(  7-C , 17-H ) :   0.9576 B(  8-C ,  9-C ) :   0.9072 B(  8-C , 10-C ) :   1.5074
B(  9-C , 18-H ) :   0.9621 B(  9-C , 19-H ) :   0.9635 B(  9-C , 20-H ) :   0.9623
B( 10-C , 21-H ) :   0.8853

FINAL SINGLE POINT ENERGY      -441.804656906436

DIPOLE MOMENT
-------------
                                X             Y             Z
Electronic contribution:     -1.84555       5.26815       0.37214
Nuclear contribution   :      1.25090      -5.76234      -0.43995
                        -----------------------------------------
Total Dipole Moment    :     -0.59465      -0.49419      -0.06780
                        -----------------------------------------
Magnitude (a.u.)       :      0.77616
Magnitude (Debye)      :      1.97285

VIBRATIONAL FREQUENCIES
-----------------------

Scaling factor for frequencies =  1.000000000  (already applied!)

   0:         0.00 cm**-1
   1:         0.00 cm**-1
   2:         0.00 cm**-1
   3:         0.00 cm**-1
   4:         0.00 cm**-1
   5:         0.00 cm**-1
   6:       -29.52 cm**-1 ***imaginary mode***
   7:        97.93 cm**-1
   8:       135.75 cm**-1
   9:       188.18 cm**-1
  10:       204.24 cm**-1
  11:       247.18 cm**-1
  12:       289.29 cm**-1
  13:       303.65 cm**-1
  14:       332.30 cm**-1
  15:       339.46 cm**-1
  16:       355.88 cm**-1
  17:       460.45 cm**-1
  18:       542.25 cm**-1
  19:       544.09 cm**-1
  20:       585.55 cm**-1
  21:       601.37 cm**-1
  22:       608.63 cm**-1
  23:       732.32 cm**-1
  24:       775.01 cm**-1
  25:       902.78 cm**-1
  26:       926.41 cm**-1
  27:       958.55 cm**-1
  28:      1029.25 cm**-1
  29:      1042.35 cm**-1
  30:      1043.80 cm**-1
  31:      1071.56 cm**-1
  32:      1126.27 cm**-1
  33:      1152.79 cm**-1
  34:      1154.95 cm**-1
  35:      1174.95 cm**-1
  36:      1229.30 cm**-1
  37:      1271.11 cm**-1
  38:      1325.76 cm**-1
  39:      1362.21 cm**-1
  40:      1396.89 cm**-1
  41:      1421.67 cm**-1
  42:      1426.20 cm**-1
  43:      1458.79 cm**-1
  44:      1476.52 cm**-1
  45:      1477.78 cm**-1
  46:      1488.71 cm**-1
  47:      1497.94 cm**-1
  48:      1498.52 cm**-1
  49:      1501.31 cm**-1
  50:      1550.74 cm**-1
  51:      1560.88 cm**-1
  52:      1658.22 cm**-1
  53:      1707.77 cm**-1
  54:      3060.52 cm**-1
  55:      3082.67 cm**-1
  56:      3106.02 cm**-1
  57:      3120.24 cm**-1
  58:      3152.77 cm**-1
  59:      3181.15 cm**-1
  60:      3197.49 cm**-1
  61:      3205.52 cm**-1
  62:      3217.90 cm**-1
  63:      3255.51 cm**-1
  64:      3260.65 cm**-1
  65:      3851.02 cm**-1

IR SPECTRUM
-----------

 Mode   freq       eps      Int      T**2         TX        TY        TZ
       cm**-1   L/(mol*cm) km/mol    a.u.
----------------------------------------------------------------------------
  7:     97.93   0.000001    0.01  0.000005  (-0.001485  0.001345 -0.000704)
  8:    135.75   0.001009    5.10  0.002321  ( 0.000653  0.004584 -0.047950)
  9:    188.18   0.000042    0.21  0.000070  ( 0.001412 -0.000125 -0.008225)
 10:    204.24   0.000165    0.83  0.000252  ( 0.001258 -0.001416  0.015767)
 11:    247.18   0.000162    0.82  0.000205  (-0.000572 -0.000799  0.014269)
 12:    289.29   0.012453   62.93  0.013433  (-0.004668 -0.008389  0.115503)
 13:    303.65   0.000055    0.28  0.000056  ( 0.001844 -0.005882 -0.004294)
 14:    332.30   0.001304    6.59  0.001225  (-0.015537 -0.031158  0.003547)
 15:    339.46   0.000122    0.62  0.000113  (-0.001190 -0.002323 -0.010285)
 16:    355.88   0.008407   42.48  0.007372  ( 0.001278 -0.002864  0.085801)
 17:    460.45   0.000256    1.30  0.000174  ( 0.008959 -0.009612 -0.001080)
 18:    542.25   0.000687    3.47  0.000396  (-0.010829 -0.016613  0.001530)
 19:    544.09   0.000155    0.78  0.000089  ( 0.002908  0.005787  0.006841)
 20:    585.55   0.002109   10.66  0.001124  ( 0.018189  0.028127  0.001377)
 21:    601.37   0.000667    3.37  0.000346  ( 0.010887  0.006149 -0.013786)
 22:    608.63   0.000766    3.87  0.000393  ( 0.009330  0.006843  0.016091)
 23:    732.32   0.000871    4.40  0.000371  (-0.001532 -0.001634  0.019131)
 24:    775.01   0.000747    3.77  0.000301  (-0.009076  0.014764 -0.000534)
 25:    902.78   0.001248    6.31  0.000431  (-0.000308  0.001023 -0.020740)
 26:    926.41   0.003455   17.46  0.001164  ( 0.000157 -0.002521  0.034023)
 27:    958.55   0.000207    1.04  0.000067  ( 0.005859 -0.005739  0.000211)
 28:   1029.25   0.000752    3.80  0.000228  (-0.002626  0.014857 -0.000496)
 29:   1042.35   0.000839    4.24  0.000251  (-0.006456  0.006720 -0.012825)
 30:   1043.80   0.001702    8.60  0.000509  ( 0.014602 -0.015756 -0.006892)
 31:   1071.56   0.000068    0.34  0.000020  ( 0.000186 -0.000082  0.004431)
 32:   1126.27   0.000040    0.20  0.000011  ( 0.001777  0.002799  0.000336)
 33:   1152.79   0.001320    6.67  0.000357  ( 0.003520 -0.018496  0.001707)
 34:   1154.95   0.004511   22.80  0.001219  ( 0.021306  0.027354  0.004097)
 35:   1174.95   0.021440  108.35  0.005695  (-0.030507 -0.068789 -0.005644)
 36:   1229.30   0.017171   86.77  0.004359  (-0.019105  0.063028  0.004622)
 37:   1271.11   0.009683   48.94  0.002377  (-0.017971 -0.045252 -0.002572)
 38:   1325.76   0.001728    8.73  0.000407  ( 0.004800  0.019538  0.001445)
 39:   1362.21   0.003428   17.33  0.000785  ( 0.027693  0.004108  0.001292)
 40:   1396.89   0.014125   71.38  0.003155  (-0.049665 -0.026117 -0.002603)
 41:   1421.67   0.000180    0.91  0.000040  ( 0.000445 -0.006237  0.000717)
 42:   1426.20   0.001929    9.75  0.000422  (-0.020481  0.001600 -0.000251)
 43:   1458.79   0.001295    6.54  0.000277  (-0.010659 -0.012037 -0.004302)
 44:   1476.52   0.004406   22.26  0.000931  (-0.000330 -0.001509  0.030475)
 45:   1477.78   0.000257    1.30  0.000054  ( 0.004547  0.004348  0.003841)
 46:   1488.71   0.000639    3.23  0.000134  ( 0.010620 -0.001117 -0.004468)
 47:   1497.94   0.002883   14.57  0.000601  ( 0.005000  0.003780 -0.023694)
 48:   1498.52   0.000371    1.87  0.000077  ( 0.002959  0.006880  0.004594)
 49:   1501.31   0.002161   10.92  0.000449  (-0.008293 -0.018878  0.004896)
 50:   1550.74   0.031542  159.40  0.006347  (-0.037978 -0.069640 -0.007438)
 51:   1560.88   0.005772   29.17  0.001154  (-0.004524  0.033667  0.000351)
 52:   1658.22   0.013231   66.86  0.002490  ( 0.010188  0.048711  0.003660)
 53:   1707.77   0.003600   18.19  0.000658  ( 0.023266 -0.010779 -0.000535)
 54:   3060.52   0.000231    1.17  0.000024  ( 0.004699 -0.001203 -0.000017)
 55:   3082.67   0.000007    0.04  0.000001  ( 0.000415  0.000731 -0.000058)
 56:   3106.02   0.000106    0.53  0.000011  (-0.003183 -0.000325  0.000629)
 57:   3120.24   0.000003    0.02  0.000000  (-0.000013  0.000117  0.000566)
 58:   3152.77   0.000010    0.05  0.000001  (-0.000004 -0.000161  0.000961)
 59:   3181.15   0.000439    2.22  0.000043  ( 0.001881  0.006252  0.000673)
 60:   3197.49   0.000135    0.68  0.000013  (-0.001871 -0.000209 -0.003107)
 61:   3205.52   0.000168    0.85  0.000016  (-0.003903 -0.001056 -0.000076)
 62:   3217.90   0.000018    0.09  0.000002  (-0.000572  0.001201  0.000140)
 63:   3255.51   0.001727    8.73  0.000166  ( 0.002738  0.012551  0.000725)
 64:   3260.65   0.002946   14.89  0.000282  (-0.013086  0.010515  0.000286)
 65:   3851.02   0.030000  151.61  0.002431  ( 0.044853  0.020334  0.002390)

--------------------------
THERMOCHEMISTRY AT 298.15K
--------------------------

Temperature         ... 298.15 K
Pressure            ... 1.00 atm
Total Mass          ... 138.19 AMU

Throughout the following assumptions are being made:
  (1) The electronic state is orbitally nondegenerate
  (2) There are no thermally accessible electronically excited states
  (3) Hindered rotations indicated by low frequency modes are not
      treated as such but are treated as vibrations and this may
      cause some error
  (4) All equations used are the standard statistical mechanics
      equations for an ideal gas
  (5) All vibrations are strictly harmonic

freq.      97.93  E(vib)   ...       0.46
freq.     135.75  E(vib)   ...       0.42
freq.     188.18  E(vib)   ...       0.36
freq.     204.24  E(vib)   ...       0.35
freq.     247.18  E(vib)   ...       0.31
freq.     289.29  E(vib)   ...       0.27
freq.     303.65  E(vib)   ...       0.26
freq.     332.30  E(vib)   ...       0.24
freq.     339.46  E(vib)   ...       0.23
freq.     355.88  E(vib)   ...       0.22
freq.     460.45  E(vib)   ...       0.16
freq.     542.25  E(vib)   ...       0.12
freq.     544.09  E(vib)   ...       0.12
freq.     585.55  E(vib)   ...       0.11
freq.     601.37  E(vib)   ...       0.10
freq.     608.63  E(vib)   ...       0.10
freq.     732.32  E(vib)   ...       0.06
freq.     775.01  E(vib)   ...       0.05
freq.     902.78  E(vib)   ...       0.03
freq.     926.41  E(vib)   ...       0.03
freq.     958.55  E(vib)   ...       0.03
freq.    1029.25  E(vib)   ...       0.02
freq.    1042.35  E(vib)   ...       0.02
freq.    1043.80  E(vib)   ...       0.02
freq.    1071.56  E(vib)   ...       0.02
freq.    1126.27  E(vib)   ...       0.01
freq.    1152.79  E(vib)   ...       0.01
freq.    1154.95  E(vib)   ...       0.01
freq.    1174.95  E(vib)   ...       0.01
freq.    1229.30  E(vib)   ...       0.01
freq.    1271.11  E(vib)   ...       0.01
freq.    1325.76  E(vib)   ...       0.01
freq.    1362.21  E(vib)   ...       0.01
freq.    1396.89  E(vib)   ...       0.00
freq.    1421.67  E(vib)   ...       0.00
freq.    1426.20  E(vib)   ...       0.00
freq.    1458.79  E(vib)   ...       0.00
freq.    1476.52  E(vib)   ...       0.00
freq.    1477.78  E(vib)   ...       0.00
freq.    1488.71  E(vib)   ...       0.00
freq.    1497.94  E(vib)   ...       0.00
freq.    1498.52  E(vib)   ...       0.00
freq.    1501.31  E(vib)   ...       0.00
freq.    1550.74  E(vib)   ...       0.00
freq.    1560.88  E(vib)   ...       0.00
freq.    1658.22  E(vib)   ...       0.00
freq.    1707.77  E(vib)   ...       0.00
freq.    3060.52  E(vib)   ...       0.00
freq.    3082.67  E(vib)   ...       0.00
freq.    3106.02  E(vib)   ...       0.00
freq.    3120.24  E(vib)   ...       0.00
freq.    3152.77  E(vib)   ...       0.00
freq.    3181.15  E(vib)   ...       0.00
freq.    3197.49  E(vib)   ...       0.00
freq.    3205.52  E(vib)   ...       0.00
freq.    3217.90  E(vib)   ...       0.00
freq.    3255.51  E(vib)   ...       0.00
freq.    3260.65  E(vib)   ...       0.00
freq.    3851.02  E(vib)   ...       0.00

------------
INNER ENERGY
------------

The inner energy is: U= E(el) + E(ZPE) + E(vib) + E(rot) + E(trans)
    E(el)   - is the total energy from the electronic structure calculation
              = E(kin-el) + E(nuc-el) + E(el-el) + E(nuc-nuc)
    E(ZPE)  - the the zero temperature vibrational energy from the frequency calculation
    E(vib)  - the the finite temperature correction to E(ZPE) due to population
              of excited vibrational states
    E(rot)  - is the rotational thermal energy
    E(trans)- is the translational thermal energy

Summary of contributions to the inner energy U:
Electronic energy                ...   -441.80465691 Eh
Zero point energy                ...      0.19120423 Eh     119.98 kcal/mol
Thermal vibrational correction   ...      0.00676819 Eh       4.25 kcal/mol
Thermal rotational correction    ...      0.00141627 Eh       0.89 kcal/mol
Thermal translational correction ...      0.00141627 Eh       0.89 kcal/mol
-----------------------------------------------------------------------
Total thermal energy                   -441.60385195 Eh

Summary of corrections to the electronic energy:
(perhaps to be used in another calculation)
Total thermal correction                  0.00960073 Eh       6.02 kcal/mol
Non-thermal (ZPE) correction              0.19120423 Eh     119.98 kcal/mol
-----------------------------------------------------------------------
Total correction                          0.20080496 Eh     126.01 kcal/mol

--------
ENTHALPY
--------

The enthalpy is H = U + kB*T
                kB is Boltzmann's constant
Total free energy                 ...   -441.60385195 Eh
Thermal Enthalpy correction       ...      0.00094421 Eh       0.59 kcal/mol
-----------------------------------------------------------------------
Total Enthalpy                    ...   -441.60290774 Eh

Note: Only C1 symmetry has been detected, increase convergence thresholds
      if your molecule has a higher symmetry. Symmetry factor of 1.0 is
      used for the rotational entropy correction.

Note: Rotational entropy computed according to Herzberg
Infrared and Raman Spectra, Chapter V,1, Van Nostrand Reinhold, 1945
Point Group:  C1, Symmetry Number:   1
Rotational constants in cm-1:     0.059078     0.043147     0.025293

Vibrational entropy computed according to the QRRHO of S. Grimme
Chem.Eur.J. 2012 18 9955

-------
ENTROPY
-------

The entropy contributions are T*S = T*(S(el)+S(vib)+S(rot)+S(trans))
     S(el)   - electronic entropy
     S(vib)  - vibrational entropy
     S(rot)  - rotational entropy
     S(trans)- translational entropy
The entropies will be listed as multiplied by the temperature to get
units of energy

Electronic entropy                ...      0.00000000 Eh      0.00 kcal/mol
Vibrational entropy               ...      0.01115126 Eh      7.00 kcal/mol
Rotational entropy                ...      0.01406614 Eh      8.83 kcal/mol
Translational entropy             ...      0.01932935 Eh     12.13 kcal/mol
-----------------------------------------------------------------------
Final entropy term                ...      0.04454675 Eh     27.95 kcal/mol

In case the symmetry of your molecule has not been determined correctly
or in case you have a reason to use a different symmetry number we print
out the resulting rotational entropy values for sn=1,12 :
 --------------------------------------------------------
|  sn= 1 | S(rot)=       0.01406614 Eh      8.83 kcal/mol|
|  sn= 2 | S(rot)=       0.01341168 Eh      8.42 kcal/mol|
|  sn= 3 | S(rot)=       0.01302885 Eh      8.18 kcal/mol|
|  sn= 4 | S(rot)=       0.01275723 Eh      8.01 kcal/mol|

                             ****ORCA TERMINATED NORMALLY****
TOTAL RUN TIME: 0 days 0 hours 11 minutes 36 seconds 141 msec
