                         Program Version 5.0.4 -  RELEASE  -
|  1> ! B3LYP EPR-II OPT
|  2> %pal nprocs 16 end
|  3> *XYZFile 1 1 model.xyz
|  4>
|  5>                          ****END OF INPUT****
 Total Charge           Charge          ....    1
 Multiplicity           Mult            ....    1
 Number of Electrons    NEL             ....   74
FINAL SINGLE POINT ENERGY      -441.627957658364
FINAL SINGLE POINT ENERGY      -441.636493743168
FINAL SINGLE POINT ENERGY      -441.637344019895
FINAL SINGLE POINT ENERGY      -441.637832583941
FINAL SINGLE POINT ENERGY      -441.638278712640
FINAL SINGLE POINT ENERGY      -441.638782650713
FINAL SINGLE POINT ENERGY      -441.639516886669
FINAL SINGLE POINT ENERGY      -441.640397073300
FINAL SINGLE POINT ENERGY      -441.641244715540
FINAL SINGLE POINT ENERGY      -441.642286716590
FINAL SINGLE POINT ENERGY      -441.644107077306
FINAL SINGLE POINT ENERGY      -441.644128926706
FINAL SINGLE POINT ENERGY      -441.644160886258
FINAL SINGLE POINT ENERGY      -441.644218045059
FINAL SINGLE POINT ENERGY      -441.644285460407
FINAL SINGLE POINT ENERGY      -441.644337317278
FINAL SINGLE POINT ENERGY      -441.644355184011
FINAL SINGLE POINT ENERGY      -441.644367231565
FINAL SINGLE POINT ENERGY      -441.644369014699
                    ***********************HURRAY********************

CARTESIAN COORDINATES (ANGSTROEM)
---------------------------------
  N     -1.693405   -0.035584    0.020270
  C     -3.175771   -0.063038   -0.060268
  C     -1.061983    1.155106    0.109162
  C      0.336041    1.208070    0.144564
  O      0.870482    2.442128    0.241569
  H      1.836253    2.408184    0.256634
  C      1.100725    0.014920    0.086071
  C      2.607437    0.107809    0.132524
  C      0.403544   -1.213303   -0.007447
  C      1.114928   -2.548662   -0.071616
  C     -0.995674   -1.195186   -0.037884
  H     -3.483252    0.047768   -1.102554
  H     -3.536635   -1.012151    0.334481
  H     -3.581471    0.753953    0.536040
  H     -1.663914    2.054644    0.152082
  H      2.940755    0.560423    1.075255
  H      3.083200   -0.868072    0.052727
  H      2.986863    0.724751   -0.692132
  H      1.737654   -2.704885    0.814582
  H      0.400123   -3.371725   -0.128798
  H      1.763870   -2.605503   -0.951100
  H     -1.581370   -2.103646   -0.107762

 Multiplicity           Mult            ....    1
 Number of Electrons    NEL             ....   74
 Basis Dimension        Dim             ....  254

ORBITAL ENERGIES
----------------

  NO   OCC          E(Eh)            E(eV)
   0   2.0000     -19.339747      -526.2613
   1   2.0000     -14.603549      -397.3828
   2   2.0000     -10.443506      -284.1822
   3   2.0000     -10.415545      -283.4214
   4   2.0000     -10.412903      -283.3495
   5   2.0000     -10.397020      -282.9173
   6   2.0000     -10.393127      -282.8114
   7   2.0000     -10.389683      -282.7176
   8   2.0000     -10.343465      -281.4600
   9   2.0000     -10.332386      -281.1585
  10   2.0000      -1.235056       -33.6076
  11   2.0000      -1.181069       -32.1385
  12   2.0000      -1.009315       -27.4648
  13   2.0000      -0.957701       -26.0604
  14   2.0000      -0.917672       -24.9711
  15   2.0000      -0.882313       -24.0090
  16   2.0000      -0.854498       -23.2521
  17   2.0000      -0.807186       -21.9647
  18   2.0000      -0.775047       -21.0901
  19   2.0000      -0.718199       -19.5432
  20   2.0000      -0.700730       -19.0678
  21   2.0000      -0.682144       -18.5621
  22   2.0000      -0.647017       -17.6062
  23   2.0000      -0.624665       -16.9980
  24   2.0000      -0.607374       -16.5275
  25   2.0000      -0.598885       -16.2965
  26   2.0000      -0.583828       -15.8868
  27   2.0000      -0.567357       -15.4386
  28   2.0000      -0.565205       -15.3800
  29   2.0000      -0.563814       -15.3422
  30   2.0000      -0.557493       -15.1702
  31   2.0000      -0.538915       -14.6646
  32   2.0000      -0.528825       -14.3901
  33   2.0000      -0.525412       -14.2972
  34   2.0000      -0.514847       -14.0097
  35   2.0000      -0.438972       -11.9450
  36   2.0000      -0.409855       -11.1527
  37   0.0000      -0.225741        -6.1427
  38   0.0000      -0.182003        -4.9525
  39   0.0000      -0.125857        -3.4248
  40   0.0000      -0.118657        -3.2288
  41   0.0000      -0.091753        -2.4967

MULLIKEN ATOMIC CHARGES
-----------------------
   0 N :    0.341398
   1 C :   -0.416991
   2 C :   -0.215481
   3 C :    0.148854
   4 O :   -0.283063
   5 H :    0.305123
   6 C :    0.200113
   7 C :   -0.599605
   8 C :    0.338021
   9 C :   -0.574166
  10 C :   -0.306858
  11 H :    0.217861
  12 H :    0.183256
  13 H :    0.188751
  14 H :    0.181492
  15 H :    0.195360
  16 H :    0.191247
  17 H :    0.188553
  18 H :    0.192294
  19 H :    0.166967
  20 H :    0.192742
  21 H :    0.164133
Sum of atomic charges:    1.0000000

LOEWDIN ATOMIC CHARGES
----------------------
   0 N :    0.152058
   1 C :    0.074743
   2 C :    0.039495
   3 C :   -0.030739
   4 O :    0.064016
   5 H :    0.104786
   6 C :   -0.026013
   7 C :   -0.017646
   8 C :   -0.041902
   9 C :   -0.011196
  10 C :    0.022023
  11 H :    0.059084
  12 H :    0.053978
  13 H :    0.055394
  14 H :    0.080079
  15 H :    0.061829
  16 H :    0.059219
  17 H :    0.059778
  18 H :    0.058894
  19 H :    0.051442
  20 H :    0.059078
  21 H :    0.071600

  Mayer bond orders larger than 0.100000
B(  0-N ,  1-C ) :   0.9110 B(  0-N ,  2-C ) :   1.3670 B(  0-N , 10-C ) :   1.3633
B(  1-C , 11-H ) :   0.9348 B(  1-C , 12-H ) :   0.9527 B(  1-C , 13-H ) :   0.9509
B(  2-C ,  3-C ) :   1.3835 B(  2-C , 10-C ) :   0.1222 B(  2-C , 14-H ) :   0.9323
B(  3-C ,  4-O ) :   1.1937 B(  3-C ,  6-C ) :   1.3304 B(  4-O ,  5-H ) :   0.8943
B(  6-C ,  7-C ) :   0.8508 B(  6-C ,  8-C ) :   1.5088 B(  6-C , 10-C ) :   0.1017
B(  7-C , 15-H ) :   0.9488 B(  7-C , 16-H ) :   0.9483 B(  7-C , 17-H ) :   0.9521
B(  8-C ,  9-C ) :   0.8872 B(  8-C , 10-C ) :   1.4352 B(  9-C , 18-H ) :   0.9481
B(  9-C , 19-H ) :   0.9701 B(  9-C , 20-H ) :   0.9474 B( 10-C , 21-H ) :   0.9315

FINAL SINGLE POINT ENERGY      -441.644370116123

DIPOLE MOMENT
-------------
                                X             Y             Z
Electronic contribution:     -1.78594       5.36615       0.35099
Nuclear contribution   :      1.25212      -5.86288      -0.41925
                        -----------------------------------------
Total Dipole Moment    :     -0.53382      -0.49674      -0.06826
                        -----------------------------------------
Magnitude (a.u.)       :      0.73237
Magnitude (Debye)      :      1.86154

Rotational constants in cm-1:     0.057854     0.042311     0.024783
Rotational constants in MHz :  1734.407415  1268.453355   742.965296

                             ****ORCA TERMINATED NORMALLY****
TOTAL RUN TIME: 0 days 0 hours 15 minutes 19 seconds 979 msec
